Program Version,EnergyPlus, Version 22.2.0-c249759bad, YMD=2022.11.29 22:21
1,5,Environment Title[],Latitude[deg],Longitude[deg],Time Zone[],Elevation[m]
2,8,Day of Simulation[],Month[],Day of Month[],DST Indicator[1=yes 0=no],Hour[],StartMinute[],EndMinute[],DayType
3,5,Cumulative Day of Simulation[],Month[],Day of Month[],DST Indicator[1=yes 0=no],DayType  ! When Daily Meters Requested
4,2,Cumulative Days of Simulation[],Month[]  ! When Monthly Meters Requested
5,1,Cumulative Days of Simulation[] ! When Run Period Meters Requested
6,1,Calendar Year of Simulation[] ! When Annual Meters Requested
10,1,Electricity:Facility [J] !Hourly
22,1,Electricity:Building [J] !Hourly
34,1,Electricity:Zone:LIVING_UNIT1 [J] !Hourly
46,1,Electricity:SpaceType:GENERAL [J] !Hourly
513,1,Electricity:HVAC [J] !Hourly
1291,1,Electricity:Plant [J] !Hourly
End of Data Dictionary
1,DALLAS FORT WORTH INTL AP ANN HTG 99.6% CONDNS DB,  32.90, -97.02,  -6.00, 171.00
2,1, 1,21, 0, 1, 0.00,60.00,WinterDesignDay
10,25160441.836067416
22,2519341.8750856025
34,2519341.8750856025
46,2519341.8750856025
513,22450856.05991178
1291,0.0
2,1, 1,21, 0, 2, 0.00,60.00,WinterDesignDay
10,24941585.587540153
22,2300485.626558334
34,2300485.626558334
46,2300485.626558334
513,22450856.05991178
1291,0.0
2,1, 1,21, 0, 3, 0.00,60.00,WinterDesignDay
10,24867700.053602282
22,2226600.0926204654
34,2226600.0926204654
46,2226600.0926204654
513,22450856.05991178
1291,0.0
2,1, 1,21, 0, 4, 0.00,60.00,WinterDesignDay
10,24812840.36807589
22,2171740.4070940726
34,2171740.4070940726
46,2171740.4070940726
513,22450856.05991178
1291,0.0
2,1, 1,21, 0, 5, 0.00,60.00,WinterDesignDay
10,26644139.619653743
22,2335718.210080423
34,2335718.210080423
46,2335718.210080423
513,22450856.05991178
1291,1663037.1783349896
2,1, 1,21, 0, 6, 0.00,60.00,WinterDesignDay
10,25554457.56752246
22,2902111.397117286
34,2902111.397117286
46,2902111.397117286
513,22450856.05991178
1291,0.0
2,1, 1,21, 0, 7, 0.00,60.00,WinterDesignDay
10,27757926.462328058
22,3490045.529346395
34,3490045.529346395
46,3490045.529346395
513,22450856.05991178
1291,1802029.927172079
2,1, 1,21, 0, 8, 0.00,60.00,WinterDesignDay
10,28182960.29079403
22,3872409.4070758065
34,3872409.4070758065
46,3872409.4070758065
513,22450856.05991178
1291,1846306.4792548364
2,1, 1,21, 0, 9, 0.00,60.00,WinterDesignDay
10,29612818.246010385
22,3436548.288166884
34,3436548.288166884
46,3436548.288166884
513,22450856.05991178
1291,3719523.0263290163
2,1, 1,21, 0,10, 0.00,60.00,WinterDesignDay
10,27590370.06853412
22,3287629.4627914913
34,3287629.4627914913
46,3287629.4627914913
513,22450856.05991178
1291,1847868.0424653685
2,1, 1,21, 0,11, 0.00,60.00,WinterDesignDay
10,27635311.032622788
22,3359522.254572048
34,3359522.254572048
46,3359522.254572048
513,22450856.05991178
1291,1820916.2147734743
2,1, 1,21, 0,12, 0.00,60.00,WinterDesignDay
10,27653121.85867361
22,3405817.7973429887
34,3405817.7973429887
46,3405817.7973429887
513,22450856.05991178
1291,1792431.4980533589
2,1, 1,21, 0,13, 0.00,60.00,WinterDesignDay
10,27569652.743322898
22,3343416.5845005065
34,3343416.5845005065
46,3343416.5845005065
513,22450856.05991178
1291,1771363.595545127
2,1, 1,21, 0,14, 0.00,60.00,WinterDesignDay
10,27489166.409064136
22,3277253.218523652
34,3277253.218523652
46,3277253.218523652
513,22450856.05991178
1291,1757040.6272632212
2,1, 1,21, 0,15, 0.00,60.00,WinterDesignDay
10,27471552.475142702
22,3272159.2094632606
34,3272159.2094632606
46,3272159.2094632606
513,22450856.05991178
1291,1744520.702402182
2,1, 1,21, 0,16, 0.00,60.00,WinterDesignDay
10,26007175.551847663
22,3549357.552769049
34,3549357.552769049
46,3549357.552769049
513,22450856.05991178
1291,0.0
2,1, 1,21, 0,17, 0.00,60.00,WinterDesignDay
10,28698882.734420177
22,4479188.816479392
34,4479188.816479392
46,4479188.816479392
513,22450856.05991178
1291,1753842.9121312075
2,1, 1,21, 0,18, 0.00,60.00,WinterDesignDay
10,29874263.34667597
22,5624286.233621349
34,5624286.233621349
46,5624286.233621349
513,22450856.05991178
1291,1778235.235642335
2,1, 1,21, 0,19, 0.00,60.00,WinterDesignDay
10,30518789.732626826
22,6045788.3062472865
34,6045788.3062472865
46,6045788.3062472865
513,22450856.05991178
1291,1805928.0769676042
2,1, 1,21, 0,20, 0.00,60.00,WinterDesignDay
10,30454330.720171083
22,5971945.160957614
34,5971945.160957614
46,5971945.160957614
513,22450856.05991178
1291,1812269.404221621
2,1, 1,21, 0,21, 0.00,60.00,WinterDesignDay
10,30366948.922295596
22,5899533.255808762
34,5899533.255808762
46,5899533.255808762
513,22450856.05991178
1291,1797299.5114949842
2,1, 1,21, 0,22, 0.00,60.00,WinterDesignDay
10,29824811.49642204
22,5386254.039457358
34,5386254.039457358
46,5386254.039457358
513,22450856.05991178
1291,1776036.144700293
2,1, 1,21, 0,23, 0.00,60.00,WinterDesignDay
10,28653862.695150647
22,4262786.538241955
34,4262786.538241955
46,4262786.538241955
513,22450856.05991178
1291,1738997.7533945562
2,1, 1,21, 0,24, 0.00,60.00,WinterDesignDay
10,25920940.716639366
22,3276627.552965166
34,3276627.552965166
46,3276627.552965166
513,22450856.05991178
1291,0.0
1,DALLAS FORT WORTH INTL AP ANN CLG .4% CONDNS DB=>MWB,  32.90, -97.02,  -6.00, 171.00
2,1, 8,21, 0, 1, 0.00,60.00,SummerDesignDay
10,5817152.470286378
22,2519341.8750856025
34,2519341.8750856025
46,2519341.8750856025
513,3107566.694130736
1291,0.0
2,1, 8,21, 0, 2, 0.00,60.00,SummerDesignDay
10,5218757.8043836085
22,2300485.626558334
34,2300485.626558334
46,2300485.626558334
513,2728028.276755236
1291,0.0
2,1, 8,21, 0, 3, 0.00,60.00,SummerDesignDay
10,4880700.6799399555
22,2226600.0926204654
34,2226600.0926204654
46,2226600.0926204654
513,2463856.6862494526
1291,0.0
2,1, 8,21, 0, 4, 0.00,60.00,SummerDesignDay
10,4618394.565155325
22,2171740.4070940726
34,2171740.4070940726
46,2171740.4070940726
513,2256410.256991215
1291,0.0
2,1, 8,21, 0, 5, 0.00,60.00,SummerDesignDay
10,4655779.653241576
22,2335718.210080423
34,2335718.210080423
46,2335718.210080423
513,2125533.2718346003
1291,0.0
2,1, 8,21, 0, 6, 0.00,60.00,SummerDesignDay
10,6920247.332622973
22,2902111.397117286
34,2902111.397117286
46,2902111.397117286
513,2142277.0912494613
1291,1674368.733762836
2,1, 8,21, 0, 7, 0.00,60.00,SummerDesignDay
10,6219437.880974235
22,3490045.529346395
34,3490045.529346395
46,3490045.529346395
513,2714397.405730039
1291,0.0
2,1, 8,21, 0, 8, 0.00,60.00,SummerDesignDay
10,9357839.42795464
22,3872409.4070758065
34,3872409.4070758065
46,3872409.4070758065
513,3726025.317727084
1291,1746016.3586001436
2,1, 8,21, 0, 9, 0.00,60.00,SummerDesignDay
10,9695800.868006801
22,3436548.288166884
34,3436548.288166884
46,3436548.288166884
513,4498750.080889279
1291,1754611.62734793
2,1, 8,21, 0,10, 0.00,60.00,SummerDesignDay
10,9447699.562306333
22,3287629.4627914913
34,3287629.4627914913
46,3287629.4627914913
513,5316613.845451075
1291,839439.7506982859
2,1, 8,21, 0,11, 0.00,60.00,SummerDesignDay
10,10385235.719658123
22,3359522.254572048
34,3359522.254572048
46,3359522.254572048
513,6118472.381358774
1291,903224.5803618189
2,1, 8,21, 0,12, 0.00,60.00,SummerDesignDay
10,11821705.527679758
22,3405817.7973429887
34,3405817.7973429887
46,3405817.7973429887
513,6689984.946628258
1291,1721886.2803430292
2,1, 8,21, 0,13, 0.00,60.00,SummerDesignDay
10,10231751.458341874
22,3343416.5845005065
34,3343416.5845005065
46,3343416.5845005065
513,6884318.3704758845
1291,0.0
2,1, 8,21, 0,14, 0.00,60.00,SummerDesignDay
10,11925015.948899912
22,3277253.218523652
34,3277253.218523652
46,3277253.218523652
513,6940684.294550396
1291,1703061.9324603837
2,1, 8,21, 0,15, 0.00,60.00,SummerDesignDay
10,10248670.280329984
22,3272159.2094632606
34,3272159.2094632606
46,3272159.2094632606
513,6972494.567501242
1291,0.0
2,1, 8,21, 0,16, 0.00,60.00,SummerDesignDay
10,12211274.096518802
22,3549357.552769049
34,3549357.552769049
46,3549357.552769049
513,6962764.044292781
1291,1692190.5602901364
2,1, 8,21, 0,17, 0.00,60.00,SummerDesignDay
10,11413781.963030653
22,4479188.816479392
34,4479188.816479392
46,4479188.816479392
513,6919598.20065346
1291,0.0
2,1, 8,21, 0,18, 0.00,60.00,SummerDesignDay
10,14212908.449388001
22,5624286.233621349
34,5624286.233621349
46,5624286.233621349
513,6855551.0712215025
1291,1712185.3270446397
2,1, 8,21, 0,19, 0.00,60.00,SummerDesignDay
10,13594678.67264982
22,6045788.3062472865
34,6045788.3062472865
46,6045788.3062472865
513,6753332.914740584
1291,579340.1621617924
2,1, 8,21, 0,20, 0.00,60.00,SummerDesignDay
10,13977922.129909363
22,5971945.160957614
34,5971945.160957614
46,5971945.160957614
513,6636584.2239367645
1291,1150132.6499349163
2,1, 8,21, 0,21, 0.00,60.00,SummerDesignDay
10,14028323.887753667
22,5899533.255808762
34,5899533.255808762
46,5899533.255808762
513,6186197.08948894
1291,1723333.4473758927
2,1, 8,21, 0,22, 0.00,60.00,SummerDesignDay
10,10742487.813407626
22,5386254.039457358
34,5386254.039457358
46,5386254.039457358
513,5144568.521597654
1291,0.0
2,1, 8,21, 0,23, 0.00,60.00,SummerDesignDay
10,10477219.198662203
22,4262786.538241955
34,4262786.538241955
46,4262786.538241955
513,4321085.839851266
1291,1692124.476966625
2,1, 8,21, 0,24, 0.00,60.00,SummerDesignDay
10,7121458.722867885
22,3276627.552965166
34,3276627.552965166
46,3276627.552965166
513,3651374.066140293
1291,0.0
1,ANNUAL,  32.90, -97.02,  -6.00, 171.00
2,1, 2, 1, 0, 1, 0.00,60.00,Monday
10,12660862.914791103
22,2498479.0097388276
34,2498479.0097388276
46,2498479.0097388276
513,9972140.003982237
1291,0.0
2,1, 2, 1, 0, 2, 0.00,60.00,Monday
10,15225654.477360591
22,2287908.203727021
34,2287908.203727021
46,2287908.203727021
513,12747502.372563535
1291,0.0
2,1, 2, 1, 0, 3, 0.00,60.00,Monday
10,16243834.862552863
22,2218387.455766968
34,2218387.455766968
46,2218387.455766968
513,13835203.505715858
1291,0.0
2,1, 2, 1, 0, 4, 0.00,60.00,Monday
10,17159278.19057076
22,2167160.80380385
34,2167160.80380385
46,2167160.80380385
513,14801873.48569687
1291,0.0
2,1, 2, 1, 0, 5, 0.00,60.00,Monday
10,18474443.393854745
22,2326991.86639299
34,2326991.86639299
46,2326991.86639299
513,15952923.356135199
1291,0.0
2,1, 2, 1, 0, 6, 0.00,60.00,Monday
10,21196543.44275625
22,2888368.680950925
34,2888368.680950925
46,2888368.680950925
513,16401579.822352495
1291,1705104.8289594403
2,1, 2, 1, 0, 7, 0.00,60.00,Monday
10,21866575.934535537
22,3455726.295687276
34,3455726.295687276
46,3455726.295687276
513,16599066.202765655
1291,1796788.4901847974
2,1, 2, 1, 0, 8, 0.00,60.00,Monday
10,13099108.608983824
22,3804342.957438114
34,3804342.957438114
46,3804342.957438114
513,7444660.097443994
1291,1836717.2095501067
2,1, 2, 1, 0, 9, 0.00,60.00,Monday
10,12224317.446955757
22,3331560.1762823085
34,3331560.1762823085
46,3331560.1762823085
513,6263336.0417578565
1291,2623530.357312883
2,1, 2, 1, 0,10, 0.00,60.00,Monday
10,10573792.294981226
22,3145052.4172653225
34,3145052.4172653225
46,3145052.4172653225
513,4533686.137339276
1291,2891037.237011144
2,1, 2, 1, 0,11, 0.00,60.00,Monday
10,6475869.975961211
22,3201316.809840188
34,3201316.809840188
46,3201316.809840188
513,1465144.1485375224
1291,1805392.5142180175
2,1, 2, 1, 0,12, 0.00,60.00,Monday
10,5465245.74342937
22,3245056.7517732778
34,3245056.7517732778
46,3245056.7517732778
513,437047.57528562384
1291,1779124.9130049867
2,1, 2, 1, 0,13, 0.00,60.00,Monday
10,4758856.328294771
22,3197289.398662933
34,3197289.398662933
46,3197289.398662933
513,154285.71428571438
1291,1403264.7119806418
2,1, 2, 1, 0,14, 0.00,60.00,Monday
10,3654656.195103089
22,3143544.016284607
34,3143544.016284607
46,3143544.016284607
513,154285.71428571438
1291,352809.9611672849
2,1, 2, 1, 0,15, 0.00,60.00,Monday
10,5045349.8750327565
22,3152610.4832543777
34,3152610.4832543777
46,3152610.4832543777
513,154285.71428571438
1291,1734437.1741271815
2,1, 2, 1, 0,16, 0.00,60.00,Monday
10,5326765.3008063175
22,3436226.8211706067
34,3436226.8211706067
46,3436226.8211706067
513,154285.71428571438
1291,1729290.8261831603
2,1, 2, 1, 0,17, 0.00,60.00,Monday
10,4538171.723939787
22,4368891.063756271
34,4368891.063756271
46,4368891.063756271
513,154285.71428571438
1291,0.0
2,1, 2, 1, 0,18, 0.00,60.00,Monday
10,7458614.451329306
22,5514884.4344747625
34,5514884.4344747625
46,5514884.4344747625
513,154285.71428571438
1291,1768558.48506832
2,1, 2, 1, 0,19, 0.00,60.00,Monday
10,8102336.851828143
22,5936377.747743254
34,5936377.747743254
46,5936377.747743254
513,154285.71428571438
1291,1795456.100299018
2,1, 2, 1, 0,20, 0.00,60.00,Monday
10,9094085.342726033
22,5860851.394397255
34,5860851.394397255
46,5860851.394397255
513,1212180.1355189641
1291,1801793.717729746
2,1, 2, 1, 0,21, 0.00,60.00,Monday
10,10497468.045426173
22,5788324.826793473
34,5788324.826793473
46,5788324.826793473
513,2702906.060011271
1291,1786977.063541362
2,1, 2, 1, 0,22, 0.00,60.00,Monday
10,10854493.866849985
22,5275040.848512863
34,5275040.848512863
46,5275040.848512863
513,3601114.962715969
1291,1766672.8032685434
2,1, 2, 1, 0,23, 0.00,60.00,Monday
10,11807133.008507362
22,4175767.1653783405
34,4175767.1653783405
46,4175767.1653783405
513,5697280.092284675
1291,1732863.4072419882
2,1, 2, 1, 0,24, 0.00,60.00,Monday
10,10880397.704041688
22,3228431.3064444675
34,3228431.3064444675
46,3228431.3064444675
513,7458509.293834796
1291,0.0
2,2, 2, 2, 0, 1, 0.00,60.00,Tuesday
10,12910797.688259687
22,2498479.0097388276
34,2498479.0097388276
46,2498479.0097388276
513,8555387.216214592
1291,1666687.5612362274
2,2, 2, 2, 0, 2, 0.00,60.00,Tuesday
10,12036026.365938926
22,2287908.203727021
34,2287908.203727021
46,2287908.203727021
513,9557874.261141866
1291,0.0
2,2, 2, 2, 0, 3, 0.00,60.00,Tuesday
10,13397756.193131387
22,2218387.455766968
34,2218387.455766968
46,2218387.455766968
513,10989124.836294383
1291,0.0
2,2, 2, 2, 0, 4, 0.00,60.00,Tuesday
10,13534589.64745862
22,2167160.80380385
34,2167160.80380385
46,2167160.80380385
513,11177184.942584727
1291,0.0
2,2, 2, 2, 0, 5, 0.00,60.00,Tuesday
10,13792516.47577197
22,2326991.86639299
34,2326991.86639299
46,2326991.86639299
513,11270996.438052425
1291,0.0
2,2, 2, 2, 0, 6, 0.00,60.00,Tuesday
10,16512178.36422922
22,2888368.680950925
34,2888368.680950925
46,2888368.680950925
513,11717447.849775493
1291,1704871.7230094096
2,2, 2, 2, 0, 7, 0.00,60.00,Tuesday
10,16714902.149935111
22,3455726.295687276
34,3455726.295687276
46,3455726.295687276
513,11446943.01679915
1291,1797237.8915508841
2,2, 2, 2, 0, 8, 0.00,60.00,Tuesday
10,13099469.70860106
22,3804342.957438114
34,3804342.957438114
46,3804342.957438114
513,7445059.386511904
1291,1836679.0200994331
2,2, 2, 2, 0, 9, 0.00,60.00,Tuesday
10,9153567.461482659
22,3331560.1762823085
34,3331560.1762823085
46,3331560.1762823085
513,3970426.471129012
1291,1845689.9424686325
2,2, 2, 2, 0,10, 0.00,60.00,Tuesday
10,8971300.28598407
22,3145052.4172653225
34,3145052.4172653225
46,3145052.4172653225
513,2159409.4683904108
1291,3662821.896962854
2,2, 2, 2, 0,11, 0.00,60.00,Tuesday
10,5289551.618122676
22,3201316.809840188
34,3201316.809840188
46,3201316.809840188
513,278938.42754935817
1291,1805279.8773676488
2,2, 2, 2, 0,12, 0.00,60.00,Tuesday
10,5182315.125103159
22,3245056.7517732778
34,3245056.7517732778
46,3245056.7517732778
513,154285.71428571438
1291,1778956.1556786844
2,2, 2, 2, 0,13, 0.00,60.00,Tuesday
10,3355591.616314129
22,3197289.398662933
34,3197289.398662933
46,3197289.398662933
513,154285.71428571438
1291,0.0
2,2, 2, 2, 0,14, 0.00,60.00,Tuesday
10,5047562.565445194
22,3143544.016284607
34,3143544.016284607
46,3143544.016284607
513,154285.71428571438
1291,1745716.331509391
2,2, 2, 2, 0,15, 0.00,60.00,Tuesday
10,5103213.540362098
22,3152610.4832543777
34,3152610.4832543777
46,3152610.4832543777
513,212394.08193190827
1291,1734192.4718103297
2,2, 2, 2, 0,16, 0.00,60.00,Tuesday
10,5373788.563314354
22,3436226.8211706067
34,3436226.8211706067
46,3436226.8211706067
513,201412.16338310693
1291,1729187.639593804
2,2, 2, 2, 0,17, 0.00,60.00,Tuesday
10,4538171.723939787
22,4368891.063756271
34,4368891.063756271
46,4368891.063756271
513,154285.71428571438
1291,0.0
2,2, 2, 2, 0,18, 0.00,60.00,Tuesday
10,7458047.137635987
22,5514884.4344747625
34,5514884.4344747625
46,5514884.4344747625
513,154285.71428571438
1291,1767991.1713750015
2,2, 2, 2, 0,19, 0.00,60.00,Tuesday
10,8101858.633513812
22,5936377.747743254
34,5936377.747743254
46,5936377.747743254
513,154285.71428571438
1291,1794977.881984686
2,2, 2, 2, 0,20, 0.00,60.00,Tuesday
10,8035834.802271864
22,5860851.394397255
34,5860851.394397255
46,5860851.394397255
513,154285.71428571438
1291,1801437.598508825
2,2, 2, 2, 0,21, 0.00,60.00,Tuesday
10,8526464.087351622
22,5788324.826793473
34,5788324.826793473
46,5788324.826793473
513,731698.8081779178
1291,1787180.357300161
2,2, 2, 2, 0,22, 0.00,60.00,Tuesday
10,10108351.066468667
22,5275040.848512863
34,5275040.848512863
46,5275040.848512863
513,2855008.875319383
1291,1766636.09028381
2,2, 2, 2, 0,23, 0.00,60.00,Tuesday
10,10362627.105727654
22,4175767.1653783405
34,4175767.1653783405
46,4175767.1653783405
513,4252783.860743489
1291,1732853.7360034666
2,2, 2, 2, 0,24, 0.00,60.00,Tuesday
10,9521060.803016389
22,3228431.3064444675
34,3228431.3064444675
46,3228431.3064444675
513,6099172.392809497
1291,0.0
2,3, 2, 3, 0, 1, 0.00,60.00,Wednesday
10,12332397.029267836
22,2498479.0097388276
34,2498479.0097388276
46,2498479.0097388276
513,7976975.677050836
1291,1666698.4414081338
2,3, 2, 3, 0, 2, 0.00,60.00,Wednesday
10,11729191.500363467
22,2287908.203727021
34,2287908.203727021
46,2287908.203727021
513,9251039.39556641
1291,0.0
2,3, 2, 3, 0, 3, 0.00,60.00,Wednesday
10,12648664.91607325
22,2218387.455766968
34,2218387.455766968
46,2218387.455766968
513,10240033.559236243
1291,0.0
2,3, 2, 3, 0, 4, 0.00,60.00,Wednesday
10,13572608.702001993
22,2167160.80380385
34,2167160.80380385
46,2167160.80380385
513,11215203.997128105
1291,0.0
2,3, 2, 3, 0, 5, 0.00,60.00,Wednesday
10,14331276.283443771
22,2326991.86639299
34,2326991.86639299
46,2326991.86639299
513,11809756.245724227
1291,0.0
2,3, 2, 3, 0, 6, 0.00,60.00,Wednesday
10,17132369.842655733
22,2888368.680950925
34,2888368.680950925
46,2888368.680950925
513,12337304.984045172
1291,1705206.0671662483
2,3, 2, 3, 0, 7, 0.00,60.00,Wednesday
10,17670256.740680803
22,3455726.295687276
34,3455726.295687276
46,3455726.295687276
513,12402206.375117827
1291,1797329.1239778982
2,3, 2, 3, 0, 8, 0.00,60.00,Wednesday
10,15538181.987911798
22,3804342.957438114
34,3804342.957438114
46,3804342.957438114
513,9883601.46333732
1291,1836849.2225847542
2,3, 2, 3, 0, 9, 0.00,60.00,Wednesday
10,10078318.888068462
22,3331560.1762823085
34,3331560.1762823085
46,3331560.1762823085
513,4895109.580824586
1291,1845758.2593588592
2,3, 2, 3, 0,10, 0.00,60.00,Wednesday
10,7953802.932337814
22,3145052.4172653225
34,3145052.4172653225
46,3145052.4172653225
513,2604719.029739721
1291,2200014.981967288
2,3, 2, 3, 0,11, 0.00,60.00,Wednesday
10,6644510.973743681
22,3201316.809840188
34,3201316.809840188
46,3201316.809840188
513,299545.46141442365
1291,3139632.199123587
2,3, 2, 3, 0,12, 0.00,60.00,Wednesday
10,3889377.8338781632
22,3245056.7517732778
34,3245056.7517732778
46,3245056.7517732778
513,154285.71428571438
1291,486018.86445368896
2,3, 2, 3, 0,13, 0.00,60.00,Wednesday
10,4738209.118495641
22,3197289.398662933
34,3197289.398662933
46,3197289.398662933
513,154285.71428571438
1291,1382617.5021815123
2,3, 2, 3, 0,14, 0.00,60.00,Wednesday
10,5214973.779242742
22,3143544.016284607
34,3143544.016284607
46,3143544.016284607
513,321919.38971169613
1291,1745493.8698809566
2,3, 2, 3, 0,15, 0.00,60.00,Wednesday
10,5654907.816279598
22,3152610.4832543777
34,3152610.4832543777
46,3152610.4832543777
513,763908.5624349229
1291,1734372.2672248157
2,3, 2, 3, 0,16, 0.00,60.00,Wednesday
10,4230590.852970699
22,3436226.8211706067
34,3436226.8211706067
46,3436226.8211706067
513,787402.0926332567
1291,0.0
2,3, 2, 3, 0,17, 0.00,60.00,Wednesday
10,6683270.380352746
22,4368891.063756271
34,4368891.063756271
46,4368891.063756271
513,555476.6730257738
1291,1743907.6976728998
2,3, 2, 3, 0,18, 0.00,60.00,Wednesday
10,7709221.663479101
22,5514884.4344747625
34,5514884.4344747625
46,5514884.4344747625
513,405358.4623711618
1291,1768092.9491326679
2,3, 2, 3, 0,19, 0.00,60.00,Wednesday
10,8336703.609100068
22,5936377.747743254
34,5936377.747743254
46,5936377.747743254
513,389235.1530817729
1291,1794873.4187748819
2,3, 2, 3, 0,20, 0.00,60.00,Wednesday
10,8117252.380576926
22,5860851.394397255
34,5860851.394397255
46,5860851.394397255
513,235965.41219501838
1291,1801175.4789045842
2,3, 2, 3, 0,21, 0.00,60.00,Wednesday
10,7948423.71513511
22,5788324.826793473
34,5788324.826793473
46,5788324.826793473
513,154285.71428571438
1291,1786553.0789758528
2,3, 2, 3, 0,22, 0.00,60.00,Wednesday
10,7407397.048233283
22,5275040.848512863
34,5275040.848512863
46,5275040.848512863
513,154285.71428571438
1291,1766405.233082095
2,3, 2, 3, 0,23, 0.00,60.00,Wednesday
10,6263899.072264056
22,4175767.1653783405
34,4175767.1653783405
46,4175767.1653783405
513,154285.71428571438
1291,1732623.8489976432
2,3, 2, 3, 0,24, 0.00,60.00,Wednesday
10,4113007.0496182665
22,3228431.3064444675
34,3228431.3064444675
46,3228431.3064444675
513,691118.6394113752
1291,0.0
2,4, 2, 4, 0, 1, 0.00,60.00,Thursday
10,4973556.433379997
22,2498479.0097388276
34,2498479.0097388276
46,2498479.0097388276
513,2284833.5225711307
1291,0.0
2,4, 2, 4, 0, 2, 0.00,60.00,Thursday
10,7180780.158887067
22,2287908.203727021
34,2287908.203727021
46,2287908.203727021
513,3049397.3293551034
1291,1653230.7247349047
2,4, 2, 4, 0, 3, 0.00,60.00,Thursday
10,5770231.926701694
22,2218387.455766968
34,2218387.455766968
46,2218387.455766968
513,3361600.569864688
1291,0.0
2,4, 2, 4, 0, 4, 0.00,60.00,Thursday
10,6121371.354859307
22,2167160.80380385
34,2167160.80380385
46,2167160.80380385
513,3763966.649985419
1291,0.0
2,4, 2, 4, 0, 5, 0.00,60.00,Thursday
10,6616258.459409682
22,2326991.86639299
34,2326991.86639299
46,2326991.86639299
513,4094738.421690139
1291,0.0
2,4, 2, 4, 0, 6, 0.00,60.00,Thursday
10,8399290.82587218
22,2888368.680950925
34,2888368.680950925
46,2888368.680950925
513,3604275.0803588713
1291,1705156.9540689937
2,4, 2, 4, 0, 7, 0.00,60.00,Thursday
10,8372963.100581762
22,3455726.295687276
34,3455726.295687276
46,3455726.295687276
513,3105366.416865309
1291,1796875.4421313766
2,4, 2, 4, 0, 8, 0.00,60.00,Thursday
10,6914865.858819811
22,3804342.957438114
34,3804342.957438114
46,3804342.957438114
513,1260361.8321248489
1291,1836772.72470524
2,4, 2, 4, 0, 9, 0.00,60.00,Thursday
10,5337224.901966174
22,3331560.1762823085
34,3331560.1762823085
46,3331560.1762823085
513,154285.71428571438
1291,1845488.139795444
2,4, 2, 4, 0,10, 0.00,60.00,Thursday
10,5134586.328428329
22,3145052.4172653225
34,3145052.4172653225
46,3145052.4172653225
513,154285.71428571438
1291,1831231.6935118092
2,4, 2, 4, 0,11, 0.00,60.00,Thursday
10,5164269.87922077
22,3201316.809840188
34,3201316.809840188
46,3201316.809840188
513,154285.71428571438
1291,1804650.8517293856
2,4, 2, 4, 0,12, 0.00,60.00,Thursday
10,5181878.879949708
22,3245056.7517732778
34,3245056.7517732778
46,3245056.7517732778
513,154285.71428571438
1291,1778519.9105252323
2,4, 2, 4, 0,13, 0.00,60.00,Thursday
10,5113718.239830603
22,3197289.398662933
34,3197289.398662933
46,3197289.398662933
513,154285.71428571438
1291,1758126.6235164744
2,4, 2, 4, 0,14, 0.00,60.00,Thursday
10,5077531.16187444
22,3143544.016284607
34,3143544.016284607
46,3143544.016284607
513,184548.0463894888
1291,1745422.595834861
2,4, 2, 4, 0,15, 0.00,60.00,Thursday
10,5235778.539178891
22,3152610.4832543777
34,3152610.4832543777
46,3152610.4832543777
513,344787.1720346296
1291,1734364.3805244018
2,4, 2, 4, 0,16, 0.00,60.00,Thursday
10,3670364.202293568
22,3436226.8211706067
34,3436226.8211706067
46,3436226.8211706067
513,227175.4419561247
1291,0.0
2,4, 2, 4, 0,17, 0.00,60.00,Thursday
10,6282149.926506776
22,4368891.063756271
34,4368891.063756271
46,4368891.063756271
513,154285.71428571438
1291,1743978.20256699
2,4, 2, 4, 0,18, 0.00,60.00,Thursday
10,7458303.454601267
22,5514884.4344747625
34,5514884.4344747625
46,5514884.4344747625
513,154285.71428571438
1291,1768247.4883402823
2,4, 2, 4, 0,19, 0.00,60.00,Thursday
10,8102220.651691431
22,5936377.747743254
34,5936377.747743254
46,5936377.747743254
513,154285.71428571438
1291,1795339.9001623061
2,4, 2, 4, 0,20, 0.00,60.00,Thursday
10,8887314.753344214
22,5860851.394397255
34,5860851.394397255
46,5860851.394397255
513,1005663.4780480221
1291,1801539.785818867
2,4, 2, 4, 0,21, 0.00,60.00,Thursday
10,10807004.273881122
22,5788324.826793473
34,5788324.826793473
46,5788324.826793473
513,3012552.3452337
1291,1786867.0067738788
2,4, 2, 4, 0,22, 0.00,60.00,Thursday
10,11799549.816539668
22,5275040.848512863
34,5275040.848512863
46,5275040.848512863
513,4545863.4408236155
1291,1766980.2748505794
2,4, 2, 4, 0,23, 0.00,60.00,Thursday
10,12452419.899619957
22,4175767.1653783405
34,4175767.1653783405
46,4175767.1653783405
513,6342581.725305545
1291,1732848.665333715
2,4, 2, 4, 0,24, 0.00,60.00,Thursday
10,11819685.978417052
22,3228431.3064444675
34,3228431.3064444675
46,3228431.3064444675
513,8397797.56821016
1291,0.0
2,5, 2, 5, 0, 1, 0.00,60.00,Friday
10,13100238.71664672
22,2498479.0097388276
34,2498479.0097388276
46,2498479.0097388276
513,10411515.805837853
1291,0.0
2,5, 2, 5, 0, 2, 0.00,60.00,Friday
10,13789427.423166977
22,2287908.203727021
34,2287908.203727021
46,2287908.203727021
513,11311275.318369918
1291,0.0
2,5, 2, 5, 0, 3, 0.00,60.00,Friday
10,15666667.174009763
22,2218387.455766968
34,2218387.455766968
46,2218387.455766968
513,11610107.612801855
1291,1647928.2043709035
2,5, 2, 5, 0, 4, 0.00,60.00,Friday
10,14489043.159238337
22,2167160.80380385
34,2167160.80380385
46,2167160.80380385
513,12131638.454364449
1291,0.0
2,5, 2, 5, 0, 5, 0.00,60.00,Friday
10,15033458.696432035
22,2326991.86639299
34,2326991.86639299
46,2326991.86639299
513,12511938.65871249
1291,0.0
2,5, 2, 5, 0, 6, 0.00,60.00,Friday
10,17465345.07597383
22,2888368.680950925
34,2888368.680950925
46,2888368.680950925
513,12670347.85324202
1291,1705138.431287497
2,5, 2, 5, 0, 7, 0.00,60.00,Friday
10,17735365.903331723
22,3455726.295687276
34,3455726.295687276
46,3455726.295687276
513,12467427.09805213
1291,1797217.563694515
2,5, 2, 5, 0, 8, 0.00,60.00,Friday
10,15128445.834268402
22,3804342.957438114
34,3804342.957438114
46,3804342.957438114
513,9473946.00400078
1291,1836768.5282779024
2,5, 2, 5, 0, 9, 0.00,60.00,Friday
10,11207153.342722703
22,3331560.1762823085
34,3331560.1762823085
46,3331560.1762823085
513,6023831.799907704
1291,1845870.4949299835
2,5, 2, 5, 0,10, 0.00,60.00,Friday
10,9008533.393142503
22,3145052.4172653225
34,3145052.4172653225
46,3145052.4172653225
513,4028234.577590602
1291,1831229.8949210967
2,5, 2, 5, 0,11, 0.00,60.00,Friday
10,6794759.238417365
22,3201316.809840188
34,3201316.809840188
46,3201316.809840188
513,1784336.1629955997
1291,1805089.762216094
2,5, 2, 5, 0,12, 0.00,60.00,Friday
10,5544430.511655206
22,3245056.7517732778
34,3245056.7517732778
46,3245056.7517732778
513,516625.44182610465
1291,1778731.8146903403
2,5, 2, 5, 0,13, 0.00,60.00,Friday
10,5114393.5930026695
22,3197289.398662933
34,3197289.398662933
46,3197289.398662933
513,154285.71428571438
1291,1758801.976688541
2,5, 2, 5, 0,14, 0.00,60.00,Friday
10,5047235.964372925
22,3143544.016284607
34,3143544.016284607
46,3143544.016284607
513,154285.71428571438
1291,1745389.7304371232
2,5, 2, 5, 0,15, 0.00,60.00,Friday
10,5045489.902047623
22,3152610.4832543777
34,3152610.4832543777
46,3152610.4832543777
513,154285.71428571438
1291,1734577.2011420492
2,5, 2, 5, 0,16, 0.00,60.00,Friday
10,3597474.474623157
22,3436226.8211706067
34,3436226.8211706067
46,3436226.8211706067
513,154285.71428571438
1291,0.0
2,5, 2, 5, 0,17, 0.00,60.00,Friday
10,6281944.719710467
22,4368891.063756271
34,4368891.063756271
46,4368891.063756271
513,154285.71428571438
1291,1743772.995770682
2,5, 2, 5, 0,18, 0.00,60.00,Friday
10,7458275.899212553
22,5514884.4344747625
34,5514884.4344747625
46,5514884.4344747625
513,154285.71428571438
1291,1768219.932951568
2,5, 2, 5, 0,19, 0.00,60.00,Friday
10,8102084.925047653
22,5936377.747743254
34,5936377.747743254
46,5936377.747743254
513,154285.71428571438
1291,1795204.173518528
2,5, 2, 5, 0,20, 0.00,60.00,Friday
10,8754681.915341299
22,5860851.394397255
34,5860851.394397255
46,5860851.394397255
513,873038.3086095825
1291,1801532.1172543927
2,5, 2, 5, 0,21, 0.00,60.00,Friday
10,10953741.082109265
22,5788324.826793473
34,5788324.826793473
46,5788324.826793473
513,3159066.0512172263
1291,1787090.1090184967
2,5, 2, 5, 0,22, 0.00,60.00,Friday
10,12056345.763241423
22,5275040.848512863
34,5275040.848512863
46,5275040.848512863
513,4802977.056728384
1291,1766662.6056475635
2,5, 2, 5, 0,23, 0.00,60.00,Friday
10,12266124.745524185
22,4175767.1653783405
34,4175767.1653783405
46,4175767.1653783405
513,7053167.807379627
1291,835967.4291638599
2,5, 2, 5, 0,24, 0.00,60.00,Friday
10,12814569.72884526
22,3228431.3064444675