Program Version,EnergyPlus, Version 22.2.0-c249759bad, YMD=2022.11.29 22:21
1,5,Environment Title[],Latitude[deg],Longitude[deg],Time Zone[],Elevation[m]
2,8,Day of Simulation[],Month[],Day of Month[],DST Indicator[1=yes 0=no],Hour[],StartMinute[],EndMinute[],DayType
3,5,Cumulative Day of Simulation[],Month[],Day of Month[],DST Indicator[1=yes 0=no],DayType  ! When Daily Report Variables Requested
4,2,Cumulative Days of Simulation[],Month[]  ! When Monthly Report Variables Requested
5,1,Cumulative Days of Simulation[] ! When Run Period Report Variables Requested
6,1,Calendar Year of Simulation[] ! When Annual Report Variables Requested
7,1,Environment,Site Outdoor Air Drybulb Temperature [C] !Hourly
684,1,LIVING_UNIT1,Zone Air Temperature [C] !Hourly
747,1,ATTIC_UNIT1,Zone Air Temperature [C] !Hourly
10,1,Electricity:Facility [J] !Hourly
22,1,Electricity:Building [J] !Hourly
34,1,Electricity:Zone:LIVING_UNIT1 [J] !Hourly
46,1,Electricity:SpaceType:GENERAL [J] !Hourly
513,1,Electricity:HVAC [J] !Hourly
1291,1,Electricity:Plant [J] !Hourly
End of Data Dictionary
1,DALLAS FORT WORTH INTL AP ANN HTG 99.6% CONDNS DB,  32.90, -97.02,  -6.00, 171.00
2,1, 1,21, 0, 1, 0.00,60.00,WinterDesignDay
7,-6.5
684,18.567694715518584
747,-4.919777486258169
10,25160441.836067416
22,2519341.8750856025
34,2519341.8750856025
46,2519341.8750856025
513,22450856.05991178
1291,0.0
2,1, 1,21, 0, 2, 0.00,60.00,WinterDesignDay
7,-6.5
684,18.44197879113273
747,-4.928174405689606
10,24941585.587540153
22,2300485.626558334
34,2300485.626558334
46,2300485.626558334
513,22450856.05991178
1291,0.0
2,1, 1,21, 0, 3, 0.00,60.00,WinterDesignDay
7,-6.5
684,18.344942761766877
747,-4.935066452452939
10,24867700.053602282
22,2226600.0926204654
34,2226600.0926204654
46,2226600.0926204654
513,22450856.05991178
1291,0.0
2,1, 1,21, 0, 4, 0.00,60.00,WinterDesignDay
7,-6.5
684,18.269213992127913
747,-4.94065394123021
10,24812840.36807589
22,2171740.4070940726
34,2171740.4070940726
46,2171740.4070940726
513,22450856.05991178
1291,0.0
2,1, 1,21, 0, 5, 0.00,60.00,WinterDesignDay
7,-6.5
684,18.224953328364634
747,-4.944576412835934
10,26644139.619653743
22,2335718.210080423
34,2335718.210080423
46,2335718.210080423
513,22450856.05991178
1291,1663037.1783349896
2,1, 1,21, 0, 6, 0.00,60.00,WinterDesignDay
7,-6.5
684,18.241046716837953
747,-4.945063106657944
10,25554457.56752246
22,2902111.397117286
34,2902111.397117286
46,2902111.397117286
513,22450856.05991178
1291,0.0
2,1, 1,21, 0, 7, 0.00,60.00,WinterDesignDay
7,-6.5
684,18.295723015029825
747,-4.942393586871964
10,27757926.462328058
22,3490045.529346395
34,3490045.529346395
46,3490045.529346395
513,22450856.05991178
1291,1802029.927172079
2,1, 1,21, 0, 8, 0.00,60.00,WinterDesignDay
7,-6.5
684,18.328509417404515
747,-4.93998603416352
10,28182960.29079403
22,3872409.4070758065
34,3872409.4070758065
46,3872409.4070758065
513,22450856.05991178
1291,1846306.4792548364
2,1, 1,21, 0, 9, 0.00,60.00,WinterDesignDay
7,-6.5
684,18.206193900064864
747,-4.945165776942186
10,29612818.246010385
22,3436548.288166884
34,3436548.288166884
46,3436548.288166884
513,22450856.05991178
1291,3719523.0263290163
2,1, 1,21, 0,10, 0.00,60.00,WinterDesignDay
7,-6.5
684,18.060200615580126
747,-4.954843798535033
10,27590370.06853412
22,3287629.4627914913
34,3287629.4627914913
46,3287629.4627914913
513,22450856.05991178
1291,1847868.0424653685
2,1, 1,21, 0,11, 0.00,60.00,WinterDesignDay
7,-6.5
684,17.967048254926905
747,-4.961821841661315
10,27635311.032622788
22,3359522.254572048
34,3359522.254572048
46,3359522.254572048
513,22450856.05991178
1291,1820916.2147734743
2,1, 1,21, 0,12, 0.00,60.00,WinterDesignDay
7,-6.5
684,17.90428643560543
747,-4.9664167186723205
10,27653121.85867361
22,3405817.7973429887
34,3405817.7973429887
46,3405817.7973429887
513,22450856.05991178
1291,1792431.4980533589
2,1, 1,21, 0,13, 0.00,60.00,WinterDesignDay
7,-6.5
684,17.855154097687716
747,-4.970083547528064
10,27569652.743322898
22,3343416.5845005065
34,3343416.5845005065
46,3343416.5845005065
513,22450856.05991178
1291,1771363.595545127
2,1, 1,21, 0,14, 0.00,60.00,WinterDesignDay
7,-6.5
684,17.81751556642408
747,-4.973048744818745
10,27489166.409064136
22,3277253.218523652
34,3277253.218523652
46,3277253.218523652
513,22450856.05991178
1291,1757040.6272632212
2,1, 1,21, 0,15, 0.00,60.00,WinterDesignDay
7,-6.5
684,17.791388682176414
747,-4.97526984943361
10,27471552.475142702
22,3272159.2094632606
34,3272159.2094632606
46,3272159.2094632606
513,22450856.05991178
1291,1744520.702402182
2,1, 1,21, 0,16, 0.00,60.00,WinterDesignDay
7,-6.5
684,17.791901733212516
747,-4.976029333105294
10,26007175.551847663
22,3549357.552769049
34,3549357.552769049
46,3549357.552769049
513,22450856.05991178
1291,0.0
2,1, 1,21, 0,17, 0.00,60.00,WinterDesignDay
7,-6.5
684,17.875887798655253
747,-4.972352072255856
10,28698882.734420177
22,4479188.816479392
34,4479188.816479392
46,4479188.816479392
513,22450856.05991178
1291,1753842.9121312075
2,1, 1,21, 0,18, 0.00,60.00,WinterDesignDay
7,-6.5
684,18.0884626472718
747,-4.9605973641242755
10,29874263.34667597
22,5624286.233621349
34,5624286.233621349
46,5624286.233621349
513,22450856.05991178
1291,1778235.235642335
2,1, 1,21, 0,19, 0.00,60.00,WinterDesignDay
7,-6.5
684,18.380041797282583
747,-4.9424640676477845
10,30518789.732626826
22,6045788.3062472865
34,6045788.3062472865
46,6045788.3062472865
513,22450856.05991178
1291,1805928.0769676042
2,1, 1,21, 0,20, 0.00,60.00,WinterDesignDay
7,-6.5
684,18.59604929632215
747,-4.926560435210001
10,30454330.720171083
22,5971945.160957614
34,5971945.160957614
46,5971945.160957614
513,22450856.05991178
1291,1812269.404221621
2,1, 1,21, 0,21, 0.00,60.00,WinterDesignDay
7,-6.5
684,18.74855678474579
747,-4.915262607631816
10,30366948.922295596
22,5899533.255808762
34,5899533.255808762
46,5899533.255808762
513,22450856.05991178
1291,1797299.5114949842
2,1, 1,21, 0,22, 0.00,60.00,WinterDesignDay
7,-6.5
684,18.841281527388755
747,-4.907451343732229
10,29824811.49642204
22,5386254.039457358
34,5386254.039457358
46,5386254.039457358
513,22450856.05991178
1291,1776036.144700293
2,1, 1,21, 0,23, 0.00,60.00,WinterDesignDay
7,-6.5
684,18.814360617082478
747,-4.906353579806223
10,28653862.695150647
22,4262786.538241955
34,4262786.538241955
46,4262786.538241955
513,22450856.05991178
1291,1738997.7533945562
2,1, 1,21, 0,24, 0.00,60.00,WinterDesignDay
7,-6.5
684,18.706486929664823
747,-4.911596637739552
10,25920940.716639366
22,3276627.552965166
34,3276627.552965166
46,3276627.552965166
513,22450856.05991178
1291,0.0
1,DALLAS FORT WORTH INTL AP ANN CLG .4% CONDNS DB=>MWB,  32.90, -97.02,  -6.00, 171.00
2,1, 8,21, 0, 1, 0.00,60.00,SummerDesignDay
7,28.595
684,23.88840498525469
747,27.75832434028618
10,5817152.470286378
22,2519341.8750856025
34,2519341.8750856025
46,2519341.8750856025
513,3107566.694130736
1291,0.0
2,1, 8,21, 0, 2, 0.00,60.00,SummerDesignDay
7,28.063333333333333
684,23.888540710000928
747,27.25041364062578
10,5218757.8043836085
22,2300485.626558334
34,2300485.626558334
46,2300485.626558334
513,2728028.276755236
1291,0.0
2,1, 8,21, 0, 3, 0.00,60.00,SummerDesignDay
7,27.6875
684,23.888614732062678
747,26.883500952672918
10,4880700.6799399555
22,2226600.0926204654
34,2226600.0926204654
46,2226600.0926204654
513,2463856.6862494526
1291,0.0
2,1, 8,21, 0, 4, 0.00,60.00,SummerDesignDay
7,27.357499999999998
684,23.888564139319417
747,26.571120423329972
10,4618394.565155325
22,2171740.4070940726
34,2171740.4070940726
46,2171740.4070940726
513,2256410.256991215
1291,0.0
2,1, 8,21, 0, 5, 0.00,60.00,SummerDesignDay
7,27.091666666666665
684,23.888634144143698
747,26.309650926216705
10,4655779.653241576
22,2335718.210080423
34,2335718.210080423
46,2335718.210080423
513,2125533.2718346003
1291,0.0
2,1, 8,21, 0, 6, 0.00,60.00,SummerDesignDay
7,27.128333333333334
684,23.889032155850675
747,26.2849011010441
10,6920247.332622973
22,2902111.397117286
34,2902111.397117286
46,2902111.397117286
513,2142277.0912494613
1291,1674368.733762836
2,1, 8,21, 0, 7, 0.00,60.00,SummerDesignDay
7,27.66916666666667
684,23.88943422340491
747,26.85445593121908
10,6219437.880974235
22,3490045.529346395
34,3490045.529346395
46,3490045.529346395
513,2714397.405730039
1291,0.0
2,1, 8,21, 0, 8, 0.00,60.00,SummerDesignDay
7,29.080833333333334
684,23.888955847759405
747,28.68493709993015
10,9357839.42795464
22,3872409.4070758065
34,3872409.4070758065
46,3872409.4070758065
513,3726025.317727084
1291,1746016.3586001436
2,1, 8,21, 0, 9, 0.00,60.00,SummerDesignDay
7,31.079166666666666
684,23.88895151447029
747,31.666553754273895
10,9695800.868006801
22,3436548.288166884
34,3436548.288166884
46,3436548.288166884
513,4498750.080889279
1291,1754611.62734793
2,1, 8,21, 0,10, 0.00,60.00,SummerDesignDay
7,33.04083333333333
684,23.889346546519878
747,34.83601570126729
10,9447699.562306333
22,3287629.4627914913
34,3287629.4627914913
46,3287629.4627914913
513,5316613.845451075
1291,839439.7506982859
2,1, 8,21, 0,11, 0.00,60.00,SummerDesignDay
7,34.782500000000006
684,23.88932937721658
747,37.617681856412524
10,10385235.719658123
22,3359522.254572048
34,3359522.254572048
46,3359522.254572048
513,6118472.381358774
1291,903224.5803618189
2,1, 8,21, 0,12, 0.00,60.00,SummerDesignDay
7,36.11166666666667
684,23.89304024231667
747,39.732912970932475
10,11821705.527679758
22,3405817.7973429887
34,3405817.7973429887
46,3405817.7973429887
513,6689984.946628258
1291,1721886.2803430292
2,1, 8,21, 0,13, 0.00,60.00,SummerDesignDay
7,37.083333333333336
684,24.01860416014354
747,41.12077886544292
10,10231751.458341874
22,3343416.5845005065
34,3343416.5845005065
46,3343416.5845005065
513,6884318.3704758845
1291,0.0
2,1, 8,21, 0,14, 0.00,60.00,SummerDesignDay
7,37.770833333333336
684,24.404908448983146
747,41.84157795862404
10,11925015.948899912
22,3277253.218523652
34,3277253.218523652
46,3277253.218523652
513,6940684.294550396
1291,1703061.9324603837
2,1, 8,21, 0,15, 0.00,60.00,SummerDesignDay
7,38.0
684,24.90742542065601
747,41.78927370940762
10,10248670.280329984
22,3272159.2094632606
34,3272159.2094632606
46,3272159.2094632606
513,6972494.567501242
1291,0.0
2,1, 8,21, 0,16, 0.00,60.00,SummerDesignDay
7,37.615
684,25.32931913923262
747,40.81200980961589
10,12211274.096518802
22,3549357.552769049
34,3549357.552769049
46,3549357.552769049
513,6962764.044292781
1291,1692190.5602901364
2,1, 8,21, 0,17, 0.00,60.00,SummerDesignDay
7,36.82666666666667
684,25.577920400311626
747,39.078123380812336
10,11413781.963030653
22,4479188.816479392
34,4479188.816479392
46,4479188.816479392
513,6919598.20065346
1291,0.0
2,1, 8,21, 0,18, 0.00,60.00,SummerDesignDay
7,35.818333333333335
684,25.62774051553232
747,36.86536805965099
10,14212908.449388001
22,5624286.233621349
34,5624286.233621349
46,5624286.233621349
513,6855551.0712215025
1291,1712185.3270446397
2,1, 8,21, 0,19, 0.00,60.00,SummerDesignDay
7,34.3975
684,25.293007360847714
747,34.286247158902626
10,13594678.67264982
22,6045788.3062472865
34,6045788.3062472865
46,6045788.3062472865
513,6753332.914740584
1291,579340.1621617924
2,1, 8,21, 0,20, 0.00,60.00,SummerDesignDay
7,33.00416666666666
684,24.50829275057333
747,32.0835369341118
10,13977922.129909363
22,5971945.160957614
34,5971945.160957614
46,5971945.160957614
513,6636584.2239367645
1291,1150132.6499349163
2,1, 8,21, 0,21, 0.00,60.00,SummerDesignDay
7,31.9225
684,23.935293855992825
747,30.776537642589176
10,14028323.887753667
22,5899533.255808762
34,5899533.255808762
46,5899533.255808762
513,6186197.08948894
1291,1723333.4473758927
2,1, 8,21, 0,22, 0.00,60.00,SummerDesignDay
7,30.9325
684,23.889520170036032
747,29.867581673881755
10,10742487.813407626
22,5386254.039457358
34,5386254.039457358
46,5386254.039457358
513,5144568.521597654
1291,0.0
2,1, 8,21, 0,23, 0.00,60.00,SummerDesignDay
7,30.07083333333333
684,23.88864052737267
747,29.089257942764092
10,10477219.198662203
22,4262786.538241955
34,4262786.538241955
46,4262786.538241955
513,4321085.839851266
1291,1692124.476966625
2,1, 8,21, 0,24, 0.00,60.00,SummerDesignDay
7,29.30083333333333
684,23.888452203596074
747,28.400041946894063
10,7121458.722867885
22,3276627.552965166
34,3276627.552965166
46,3276627.552965166
513,3651374.066140293
1291,0.0
1,ANNUAL,  32.90, -97.02,  -6.00, 171.00
2,1, 2, 1, 0, 1, 0.00,60.00,Monday
7,5.316666666666666
684,22.221468569304122
747,7.329295496871922
10,12660862.914791103
22,2498479.0097388276
34,2498479.0097388276
46,2498479.0097388276
513,9972140.003982237
1291,0.0
2,1, 2, 1, 0, 2, 0.00,60.00,Monday
7,3.608333333333333
684,22.220773402375283
747,5.529463302010737
10,15225654.477360591
22,2287908.203727021
34,2287908.203727021
46,2287908.203727021
513,12747502.372563535
1291,0.0
2,1, 2, 1, 0, 3, 0.00,60.00,Monday
7,3.4
684,22.22069586700673
747,5.0232605358197935
10,16243834.862552863
22,2218387.455766968
34,2218387.455766968
46,2218387.455766968
513,13835203.505715858
1291,0.0
2,1, 2, 1, 0, 4, 0.00,60.00,Monday
7,3.4
684,22.22066514539553
747,4.869348930092362
10,17159278.19057076
22,2167160.80380385
34,2167160.80380385
46,2167160.80380385
513,14801873.48569687
1291,0.0
2,1, 2, 1, 0, 5, 0.00,60.00,Monday
7,3.108333333333333
684,22.220597273988393
747,4.484967603180043
10,18474443.393854745
22,2326991.86639299
34,2326991.86639299
46,2326991.86639299
513,15952923.356135199
1291,0.0
2,1, 2, 1, 0, 6, 0.00,60.00,Monday
7,2.5500000000000003
684,22.220518979878182
747,3.9873877305935146
10,21196543.44275625
22,2888368.680950925
34,2888368.680950925
46,2888368.680950925
513,16401579.822352495
1291,1705104.8289594403
2,1, 2, 1, 0, 7, 0.00,60.00,Monday
7,2.0083333333333333
684,22.22042182009658
747,3.6017485410003505
10,21866575.934535537
22,3455726.295687276
34,3455726.295687276
46,3455726.295687276
513,16599066.202765655
1291,1796788.4901847974
2,1, 2, 1, 0, 8, 0.00,60.00,Monday
7,1.8
684,22.247445746767976
747,3.2678783576851806
10,13099108.608983824
22,3804342.957438114
34,3804342.957438114
46,3804342.957438114
513,7444660.097443994
1291,1836717.2095501067
2,1, 2, 1, 0, 9, 0.00,60.00,Monday
7,3.025
684,22.221443564445877
747,6.229405547426427
10,12224317.446955757
22,3331560.1762823085
34,3331560.1762823085
46,3331560.1762823085
513,6263336.0417578565
1291,2623530.357312883
2,1, 2, 1, 0,10, 0.00,60.00,Monday
7,4.95
684,22.22166191456587
747,9.31976708570023
10,10573792.294981226
22,3145052.4172653225
34,3145052.4172653225
46,3145052.4172653225
513,4533686.137339276
1291,2891037.237011144
2,1, 2, 1, 0,11, 0.00,60.00,Monday
7,7.2749999999999995
684,22.17010372154302
747,11.871097357752207
10,6475869.975961211
22,3201316.809840188
34,3201316.809840188
46,3201316.809840188
513,1465144.1485375224
1291,1805392.5142180175
2,1, 2, 1, 0,12, 0.00,60.00,Monday
7,8.983333333333333
684,22.20685435044361
747,14.668200886148178
10,5465245.74342937
22,3245056.7517732778
34,3245056.7517732778
46,3245056.7517732778
513,437047.57528562384
1291,1779124.9130049867
2,1, 2, 1, 0,13, 0.00,60.00,Monday
7,11.091666666666669
684,22.361482092815297
747,16.7110743480801
10,4758856.328294771
22,3197289.398662933
34,3197289.398662933
46,3197289.398662933
513,154285.71428571438
1291,1403264.7119806418
2,1, 2, 1, 0,14, 0.00,60.00,Monday
7,13.233333333333334
684,22.786180792633882
747,17.22944291795435
10,3654656.195103089
22,3143544.016284607
34,3143544.016284607
46,3143544.016284607
513,154285.71428571438
1291,352809.9611672849
2,1, 2, 1, 0,15, 0.00,60.00,Monday
7,14.191666666666668
684,23.324069734207487
747,18.312952884615445
10,5045349.8750327565
22,3152610.4832543777
34,3152610.4832543777
46,3152610.4832543777
513,154285.71428571438
1291,1734437.1741271815
2,1, 2, 1, 0,16, 0.00,60.00,Monday
7,14.75
684,23.552352536953816
747,17.89960328320105
10,5326765.3008063175
22,3436226.8211706067
34,3436226.8211706067
46,3436226.8211706067
513,154285.71428571438
1291,1729290.8261831603
2,1, 2, 1, 0,17, 0.00,60.00,Monday
7,14.358333333333334
684,23.20935121499724
747,15.676104504578335
10,4538171.723939787
22,4368891.063756271
34,4368891.063756271
46,4368891.063756271
513,154285.71428571438
1291,0.0
2,1, 2, 1, 0,18, 0.00,60.00,Monday
7,12.033333333333333
684,22.78266229660751
747,13.02455812556053
10,7458614.451329306
22,5514884.4344747625
34,5514884.4344747625
46,5514884.4344747625
513,154285.71428571438
1291,1768558.48506832
2,1, 2, 1, 0,19, 0.00,60.00,Monday
7,10.291666666666666
684,22.36431015187833
747,10.495797553014073
10,8102336.851828143
22,5936377.747743254
34,5936377.747743254
46,5936377.747743254
513,154285.71428571438
1291,1795456.100299018
2,1, 2, 1, 0,20, 0.00,60.00,Monday
7,9.65
684,22.1906024929436
747,9.915487126299332
10,9094085.342726033
22,5860851.394397255
34,5860851.394397255
46,5860851.394397255
513,1212180.1355189641
1291,1801793.717729746
2,1, 2, 1, 0,21, 0.00,60.00,Monday
7,8.816666666666666
684,22.217841724065774
747,9.800519620982618
10,10497468.045426173
22,5788324.826793473
34,5788324.826793473
46,5788324.826793473
513,2702906.060011271
1291,1786977.063541362
2,1, 2, 1, 0,22, 0.00,60.00,Monday
7,8.691666666666666
684,22.221412517251668
747,9.272242116908236
10,10854493.866849985
22,5275040.848512863
34,5275040.848512863
46,5275040.848512863
513,3601114.962715969
1291,1766672.8032685434
2,1, 2, 1, 0,23, 0.00,60.00,Monday
7,7.033333333333335
684,22.22130324246086
747,9.188779616901082
10,11807133.008507362
22,4175767.1653783405
34,4175767.1653783405
46,4175767.1653783405
513,5697280.092284675
1291,1732863.4072419882
2,1, 2, 1, 0,24, 0.00,60.00,Monday
7,6.633333333333333
684,22.221275824982726
747,8.759219806554986
10,10880397.704041688
22,3228431.3064444675
34,3228431.3064444675
46,3228431.3064444675
513,7458509.293834796
1291,0.0
2,2, 2, 2, 0, 1, 0.00,60.00,Tuesday
7,6.658333333333334
684,22.22138846590181
747,9.344432663036818
10,12910797.688259687
22,2498479.0097388276
34,2498479.0097388276
46,2498479.0097388276
513,8555387.216214592
1291,1666687.5612362274
2,2, 2, 2, 0, 2, 0.00,60.00,Tuesday
7,6.2
684,22.221306436643875
747,9.1397367302731
10,12036026.365938926
22,2287908.203727021
34,2287908.203727021
46,2287908.203727021
513,9557874.261141866
1291,0.0
2,2, 2, 2, 0, 3, 0.00,60.00,Tuesday
7,5.1499999999999995
684,22.221197137059352
747,8.017710718287155
10,13397756.193131387
22,2218387.455766968
34,2218387.455766968
46,2218387.455766968
513,10989124.836294383
1291,0.0
2,2, 2, 2, 0, 4, 0.00,60.00,Tuesday
7,5.158333333333334
684,22.22139101398407
747,8.146262673014606
10,13534589.64745862
22,2167160.80380385
34,2167160.80380385
46,2167160.80380385
513,11177184.942584727
1291,0.0
2,2, 2, 2, 0, 5, 0.00,60.00,Tuesday
7,5.991666666666667
684,22.221321867408278
747,8.00430454159869
10,13792516.47577197
22,2326991.86639299
34,2326991.86639299
46,2326991.86639299
513,11270996.438052425
1291,0.0
2,2, 2, 2, 0, 6, 0.00,60.00,Tuesday
7,5.5
684,22.22113485962851
747,7.623579092534469
10,16512178.36422922
22,2888368.680950925
34,2888368.680950925
46,2888368.680950925
513,11717447.849775493
1291,1704871.7230094096
2,2, 2, 2, 0, 7, 0.00,60.00,Tuesday
7,5.408333333333334
684,22.221099376275674
747,7.164656308556868
10,16714902.149935111
22,3455726.295687276
34,3455726.295687276
46,3455726.295687276
513,11446943.01679915
1291,1797237.8915508841
2,2, 2, 2, 0, 8, 0.00,60.00,Tuesday
7,4.941666666666666
684,22.221239575222896
747,7.086565729683734
10,13099469.70860106
22,3804342.957438114
34,3804342.957438114
46,3804342.957438114
513,7445059.386511904
1291,1836679.0200994331
2,2, 2, 2, 0, 9, 0.00,60.00,Tuesday
7,6.733333333333333
684,22.221970337987443
747,10.637025256353125
10,9153567.461482659
22,3331560.1762823085
34,3331560.1762823085
46,3331560.1762823085
513,3970426.471129012
1291,1845689.9424686325
2,2, 2, 2, 0,10, 0.00,60.00,Tuesday
7,9.333333333333334
684,22.211695692260136
747,13.506896699870772
10,8971300.28598407
22,3145052.4172653225
34,3145052.4172653225
46,3145052.4172653225
513,2159409.4683904108
1291,3662821.896962854
2,2, 2, 2, 0,11, 0.00,60.00,Tuesday
7,11.341666666666667
684,22.20912339021433
747,14.946801825192095
10,5289551.618122676
22,3201316.809840188
34,3201316.809840188
46,3201316.809840188
513,278938.42754935817
1291,1805279.8773676488
2,2, 2, 2, 0,12, 0.00,60.00,Tuesday
7,13.233333333333334
684,22.53528497292413
747,17.413661195285215
10,5182315.125103159
22,3245056.7517732778
34,3245056.7517732778
46,3245056.7517732778
513,154285.71428571438
1291,1778956.1556786844
2,2, 2, 2, 0,13, 0.00,60.00,Tuesday
7,14.541666666666666
684,22.89836124274932
747,18.50293206571315
10,3355591.616314129
22,3197289.398662933
34,3197289.398662933
46,3197289.398662933
513,154285.71428571438
1291,0.0
2,2, 2, 2, 0,14, 0.00,60.00,Tuesday
7,16.05
684,23.348555965287783
747,19.20352491401248
10,5047562.565445194
22,3143544.016284607
34,3143544.016284607
46,3143544.016284607
513,154285.71428571438
1291,1745716.331509391
2,2, 2, 2, 0,15, 0.00,60.00,Tuesday
7,17.441666666666666
684,23.83918753581243
747,19.78392259625825
10,5103213.540362098
22,3152610.4832543777
34,3152610.4832543777
46,3152610.4832543777
513,212394.08193190827
1291,1734192.4718103297
2,2, 2, 2, 0,16, 0.00,60.00,Tuesday
7,17.55
684,23.892674595549007
747,18.819973253674267
10,5373788.563314354
22,3436226.8211706067
34,3436226.8211706067
46,3436226.8211706067
513,201412.16338310693
1291,1729187.639593804
2,2, 2, 2, 0,17, 0.00,60.00,Tuesday
7,17.3
684,23.779560354348472
747,17.668240608187233
10,4538171.723939787
22,4368891.063756271
34,4368891.063756271
46,4368891.063756271
513,154285.71428571438
1291,0.0
2,2, 2, 2, 0,18, 0.00,60.00,Tuesday
7,15.958333333333334
684,23.467687554362318
747,16.130716286399657
10,7458047.137635987
22,5514884.4344747625
34,5514884.4344747625
46,5514884.4344747625
513,154285.71428571438
1291,1767991.1713750015
2,2, 2, 2, 0,19, 0.00,60.00,Tuesday
7,13.775
684,23.053677115400475
747,14.00172099095193
10,8101858.633513812
22,5936377.747743254
34,5936377.747743254
46,5936377.747743254
513,154285.71428571438
1291,1794977.881984686
2,2, 2, 2, 0,20, 0.00,60.00,Tuesday
7,11.908333333333333
684,22.580383597510888
747,12.187075113720823
10,8035834.802271864
22,5860851.394397255
34,5860851.394397255
46,5860851.394397255
513,154285.71428571438
1291,1801437.598508825
2,2, 2, 2, 0,21, 0.00,60.00,Tuesday
7,11.200000000000001
684,22.192070127508035
747,11.518166535739292
10,8526464.087351622
22,5788324.826793473
34,5788324.826793473
46,5788324.826793473
513,731698.8081779178
1291,1787180.357300161
2,2, 2, 2, 0,22, 0.00,60.00,Tuesday
7,10.5
684,22.22061597877378
747,11.404858954975383
10,10108351.066468667
22,5275040.848512863
34,5275040.848512863
46,5275040.848512863
513,2855008.875319383
1291,1766636.09028381
2,2, 2, 2, 0,23, 0.00,60.00,Tuesday
7,9.358333333333334
684,22.22149349884316
747,10.46445632723521
10,10362627.105727654
22,4175767.1653783405
34,4175767.1653783405
46,4175767.1653783405
513,4252783.860743489
1291,1732853.7360034666
2,2, 2, 2, 0,24, 0.00,60.00,Tuesday
7,8.316666666666666
684,22.221402774116015
747,9.581368486874547
10,9521060.803016389
22,3228431.3064444675
34,3228431.3064444675
46,3228431.3064444675
513,6099172.392809497
1291,0.0
2,3, 2, 3, 0, 1, 0.00,60.00,Wednesday
7,7.55
684,22.221303484484498
747,8.760143191184104
10,12332397.029267836
22,2498479.0097388276
34,2498479.0097388276
46,2498479.0097388276
513,7976975.677050836
1291,1666698.4414081338
2,3, 2, 3, 0, 2, 0.00,60.00,Wednesday
7,7.008333333333333
684,22.221244978346505
747,8.279364019999015
10,11729191.500363467
22,2287908.203727021
34,2287908.203727021
46,2287908.203727021
513,9251039.39556641
1291,0.0
2,3, 2, 3, 0, 3, 0.00,60.00,Wednesday
7,6.45
684,22.221181854342394
747,7.829452376090548
10,12648664.91607325
22,2218387.455766968
34,2218387.455766968
46,2218387.455766968
513,10240033.559236243
1291,0.0
2,3, 2, 3, 0, 4, 0.00,60.00,Wednesday
7,5.5
684,22.221071491246438
747,7.063619265458172
10,13572608.702001993
22,2167160.80380385
34,2167160.80380385
46,2167160.80380385
513,11215203.997128105
1291,0.0
2,3, 2, 3, 0, 5, 0.00,60.00,Wednesday
7,5.0
684,22.220988579063306
747,6.530168330060012
10,14331276.283443771
22,2326991.86639299
34,2326991.86639299
46,2326991.86639299
513,11809756.245724227
1291,0.0
2,3, 2, 3, 0, 6, 0.00,60.00,Wednesday
7,4.3583333333333325
684,22.220901739558943
747,6.080171220748947
10,17132369.842655733
22,2888368.680950925
34,2888368.680950925
46,2888368.680950925
513,12337304.984045172
1291,1705206.0671662483
2,3, 2, 3, 0, 7, 0.00,60.00,Wednesday
7,4.191666666666666
684,22.22087933605899
747,5.976813125302129
10,17670256.740680803
22,3455726.295687276
34,3455726.295687276
46,3455726.295687276
513,12402206.375117827
1291,1797329.1239778982
2,3, 2, 3, 0, 8, 0.00,60.00,Wednesday
7,5.8
684,22.221342891320308
747,7.1521845074880686
10,15538181.987911798
22,3804342.957438114
34,3804342.957438114
46,3804342.957438114
513,9883601.46333732
1291,1836849.2225847542
2,3, 2, 3, 0, 9, 0.00,60.00,Wednesday
7,8.666666666666666
684,22.221944667734146
747,10.747311068913765
10,10078318.888068462
22,3331560.1762823085
34,3331560.1762823085
46,3331560.1762823085
513,4895109.580824586
1291,1845758.2593588592
2,3, 2, 3, 0,10, 0.00,60.00,Wednesday
7,11.691666666666668
684,22.22222180690065
747,13.81263222029869
10,7953802.932337814
22,3145052.4172653225
34,3145052.4172653225
46,3145052.4172653225
513,2604719.029739721
1291,2200014.981967288
2,3, 2, 3, 0,11, 0.00,60.00,Wednesday
7,14.533333333333333
684,22.250897656849645
747,15.997909347440357
10,6644510.973743681
22,3201316.809840188
34,3201316.809840188
46,3201316.809840188
513,299545.46141442365
1291,3139632.199123587
2,3, 2, 3, 0,12, 0.00,60.00,Wednesday
7,16.983333333333334
684,22.77482435568569
747,18.611293983192198
10,3889377.8338781632
22,3245056.7517732778
34,3245056.7517732778
46,3245056.7517732778
513,154285.71428571438
1291,486018.86445368896
2,3, 2, 3, 0,13, 0.00,60.00,Wednesday
7,18.775000000000002
684,23.31002302993518
747,20.0878235716128
10,4738209.118495641
22,3197289.398662933
34,3197289.398662933
46,3197289.398662933
513,154285.71428571438
1291,1382617.5021815123
2,3, 2, 3, 0,14, 0.00,60.00,Wednesday
7,19.75
684,23.818799924974183
747,20.95524345010928
10,5214973.779242742
22,3143544.016284607
34,3143544.016284607
46,3143544.016284607
513,321919.38971169613
1291,1745493.8698809566
2,3, 2, 3, 0,15, 0.00,60.00,Wednesday
7,20.700000000000003
684,23.890102549789535
747,21.598024570835438
10,5654907.816279598
22,3152610.4832543777
34,3152610.4832543777
46,3152610.4832543777
513,763908.5624349229
1291,1734372.2672248157
2,3, 2, 3, 0,16, 0.00,60.00,Wednesday
7,21.55
684,23.890954344164083
747,21.93029262626193
10,4230590.852970699
22,3436226.8211706067
34,3436226.8211706067
46,3436226.8211706067
513,787402.0926332567
1291,0.0
2,3, 2, 3, 0,17, 0.00,60.00,Wednesday
7,21.450000000000003
684,23.88627502018537
747,21.598224919596134
10,6683270.380352746
22,4368891.063756271
34,4368891.063756271
46,4368891.063756271
513,555476.6730257738
1291,1743907.6976728998
2,3, 2, 3, 0,18, 0.00,60.00,Wednesday
7,20.5
684,23.884727124486744
747,20.58115817925111
10,7709221.663479101
22,5514884.4344747625
34,5514884.4344747625
46,5514884.4344747625
513,405358.4623711618
1291,1768092.9491326679
2,3, 2, 3, 0,19, 0.00,60.00,Wednesday
7,19.358333333333334
684,23.893721663378333
747,19.447935497617394
10,8336703.609100068
22,5936377.747743254
34,5936377.747743254
46,5936377.747743254
513,389235.1530817729
1291,1794873.4187748819
2,3, 2, 3, 0,20, 0.00,60.00,Wednesday
7,18.316666666666663
684,23.880740419577503
747,18.396647290688353
10,8117252.380576926
22,5860851.394397255
34,5860851.394397255
46,5860851.394397255
513,235965.41219501838
1291,1801175.4789045842
2,3, 2, 3, 0,21, 0.00,60.00,Wednesday
7,17.55
684,23.689347345055847
747,17.55804271493823
10,7948423.71513511
22,5788324.826793473
34,5788324.826793473
46,5788324.826793473
513,154285.71428571438
1291,1786553.0789758528
2,3, 2, 3, 0,22, 0.00,60.00,Wednesday
7,17.008333333333333
684,23.29335784806094
747,16.968558263056952
10,7407397.048233283
22,5275040.848512863
34,5275040.848512863
46,5275040.848512863
513,154285.71428571438
1291,1766405.233082095
2,3, 2, 3, 0,23, 0.00,60.00,Wednesday
7,16.45
684,22.76640794363814
747,16.43008915283245
10,6263899.072264056
22,4175767.1653783405
34,4175767.1653783405
46,4175767.1653783405
513,154285.71428571438
1291,1732623.8489976432
2,3, 2, 3, 0,24, 0.00,60.00,Wednesday
7,16.2
684,22.26235029362461
747,16.341521880624526
10,4113007.0496182665
22,3228431.3064444675
34,3228431.3064444675
46,3228431.3064444675
513,691118.6394113752
1291,0.0
2,4, 2, 4, 0, 1, 0.00,60.00,Thursday
7,15.908333333333333
684,22.222366386950522
747,16.319761263256378
10,4973556.433379997
22,2498479.0097388276
34,2498479.0097388276
46,2498479.0097388276
513,2284833.5225711307
1291,0.0
2,4, 2, 4, 0, 2, 0.00,60.00,Thursday
7,15.700000000000001
684,22.222358235064277
747,16.13062712329588
10,7180780.158887067
22,2287908.203727021
34,2287908.203727021