Program Version,EnergyPlus, Version 22.2.0-c249759bad, YMD=2023.05.28 19:35
1,5,Environment Title[],Latitude[deg],Longitude[deg],Time Zone[],Elevation[m]
2,8,Day of Simulation[],Month[],Day of Month[],DST Indicator[1=yes 0=no],Hour[],StartMinute[],EndMinute[],DayType
3,5,Cumulative Day of Simulation[],Month[],Day of Month[],DST Indicator[1=yes 0=no],DayType  ! When Daily Report Variables Requested
4,2,Cumulative Days of Simulation[],Month[]  ! When Monthly Report Variables Requested
5,1,Cumulative Days of Simulation[] ! When Run Period Report Variables Requested
6,1,Calendar Year of Simulation[] ! When Annual Report Variables Requested
7,1,Environment,Site Outdoor Air Drybulb Temperature [C] !Hourly
684,1,LIVING_UNIT1,Zone Air Temperature [C] !Hourly
747,1,ATTIC_UNIT1,Zone Air Temperature [C] !Hourly
10,1,Electricity:Facility [J] !Hourly
22,1,Electricity:Building [J] !Hourly
34,1,Electricity:Zone:LIVING_UNIT1 [J] !Hourly
46,1,Electricity:SpaceType:GENERAL [J] !Hourly
513,1,Electricity:HVAC [J] !Hourly
1291,1,Electricity:Plant [J] !Hourly
End of Data Dictionary
1,DALLAS FORT WORTH INTL AP ANN HTG 99.6% CONDNS DB,  32.90, -97.02,  -6.00, 171.00
2,1, 1,21, 0, 1, 0.00,60.00,WinterDesignDay
7,-6.5
684,22.220044576524643
747,-4.307385947678468
10,30100086.116321698
22,2519341.8750856025
34,2519341.8750856025
46,2519341.8750856025
513,27390500.340166062
1291,0.0
2,1, 1,21, 0, 2, 0.00,60.00,WinterDesignDay
7,-6.5
684,22.22005282884824
747,-4.30775146261441
10,30192447.259528846
22,2300485.626558334
34,2300485.626558334
46,2300485.626558334
513,27701717.73190047
1291,0.0
2,1, 1,21, 0, 3, 0.00,60.00,WinterDesignDay
7,-6.5
684,22.220056888805576
747,-4.308154090058403
10,30269187.8897369
22,2226600.0926204654
34,2226600.0926204654
46,2226600.0926204654
513,27852343.8960464
1291,0.0
2,1, 1,21, 0, 4, 0.00,60.00,WinterDesignDay
7,-6.5
684,22.220058558681956
747,-4.308522662631476
10,30300766.55134533
22,2171740.4070940726
34,2171740.4070940726
46,2171740.4070940726
513,27938782.243181217
1291,0.0
2,1, 1,21, 0, 5, 0.00,60.00,WinterDesignDay
7,-6.5
684,22.22006094355713
747,-4.30880456199818
10,31316603.10080392
22,2335718.210080423
34,2335718.210080423
46,2335718.210080423
513,27889240.864249893
1291,897115.8551470496
2,1, 1,21, 0, 6, 0.00,60.00,WinterDesignDay
7,-6.5
684,22.220063481920118
747,-4.30903155921992
10,31461481.98717679
22,2902111.397117286
34,2902111.397117286
46,2902111.397117286
513,27572761.300951798
1291,785119.1786143141
2,1, 1,21, 0, 7, 0.00,60.00,WinterDesignDay
7,-6.5
684,22.220059115245494
747,-4.309101287468304
10,32551141.44360304
22,3490045.529346395
34,3490045.529346395
46,3490045.529346395
513,27245872.381827734
1291,1800228.5865311148
2,1, 1,21, 0, 8, 0.00,60.00,WinterDesignDay
7,-6.5
684,22.220051688522094
747,-4.309025285183347
10,32901779.03531629
22,3872409.4070758065
34,3872409.4070758065
46,3872409.4070758065
513,27171818.40799422
1291,1844162.8756946493
2,1, 1,21, 0, 9, 0.00,60.00,WinterDesignDay
7,-6.5
684,22.220040420312333
747,-4.309029011383952
10,35074615.988865
22,3436548.288166884
34,3436548.288166884
46,3436548.288166884
513,27916252.093687214
1291,3715924.7354082037
2,1, 1,21, 0,10, 0.00,60.00,WinterDesignDay
7,-6.5
684,22.220051120395798
747,-4.309238322544878
10,33461551.284719568
22,3287629.4627914913
34,3287629.4627914913
46,3287629.4627914913
513,28324326.605866596
1291,1845578.7126959981
2,1, 1,21, 0,11, 0.00,60.00,WinterDesignDay
7,-6.5
684,22.220058176851683
747,-4.309460891282732
10,33575069.38594553
22,3359522.254572048
34,3359522.254572048
46,3359522.254572048
513,28392765.982639097
1291,1818764.6453688992
2,1, 1,21, 0,12, 0.00,60.00,WinterDesignDay
7,-6.5
684,22.22005858693527
747,-4.309628278083764
10,33619589.49164282
22,3405817.7973429887
34,3405817.7973429887
46,3405817.7973429887
513,28419123.54868749
1291,1790631.6422468568
2,1, 1,21, 0,13, 0.00,60.00,WinterDesignDay
7,-6.5
684,22.220058586158686
747,-4.309743759303532
10,33557157.663626045
22,3343416.5845005065
34,3343416.5845005065
46,3343416.5845005065
513,28440598.95195837
1291,1769125.6238016847
2,1, 1,21, 0,14, 0.00,60.00,WinterDesignDay
7,-6.5
684,22.220059246602748
747,-4.309836226231155
10,33480983.300998494
22,3277253.218523652
34,3277253.218523652
46,3277253.218523652
513,28444483.216717333
1291,1755230.3623920304
2,1, 1,21, 0,15, 0.00,60.00,WinterDesignDay
7,-6.5
684,22.220059682322354
747,-4.30992173268041
10,32014605.825602613
22,3272159.2094632606
34,3272159.2094632606
46,3272159.2094632606
513,28426536.53877621
1291,311893.5739976637
2,1, 1,21, 0,16, 0.00,60.00,WinterDesignDay
7,-6.5
684,22.220060833047867
747,-4.309969030845826
10,33265441.859461848
22,3549357.552769049
34,3549357.552769049
46,3549357.552769049
513,28283038.103195995
1291,1426084.2643299685
2,1, 1,21, 0,17, 0.00,60.00,WinterDesignDay
7,-6.5
684,22.220062725047573
747,-4.309889806473691
10,33984212.2085874
22,4479188.816479392
34,4479188.816479392
46,4479188.816479392
513,27737751.801042356
1291,1752276.6451678472
2,1, 1,21, 0,18, 0.00,60.00,WinterDesignDay
7,-6.5
684,22.220058608435625
747,-4.309514795719697
10,34212949.2197391
22,5624286.233621349
34,5624286.233621349
46,5624286.233621349
513,26791219.44745773
1291,1776557.7211595166
2,1, 1,21, 0,19, 0.00,60.00,WinterDesignDay
7,-6.5
684,22.22005070113472
747,-4.3088249069785745
10,33911581.287285
22,6045788.3062472865
34,6045788.3062472865
46,6045788.3062472865
513,25845448.922937114
1291,1804126.7686004385
2,1, 1,21, 0,20, 0.00,60.00,WinterDesignDay
7,-6.5
684,22.220038609365982
747,-4.308166464027657
10,33555382.47293849
22,5971945.160957614
34,5971945.160957614
46,5971945.160957614
513,25553698.99420874
1291,1810478.2226920738
2,1, 1,21, 0,21, 0.00,60.00,WinterDesignDay
7,-6.5
684,22.22003649130366
747,-4.30773781696781
10,33359461.22354567
22,5899533.255808762
34,5899533.255808762
46,5899533.255808762
513,25445027.199177142
1291,1795640.6734796972
2,1, 1,21, 0,22, 0.00,60.00,WinterDesignDay
7,-6.5
684,22.220033386422116
747,-4.307395159058742
10,32934392.46793121
22,5386254.039457358
34,5386254.039457358
46,5386254.039457358
513,25561896.81335377
1291,1774576.3627674738
2,1, 1,21, 0,23, 0.00,60.00,WinterDesignDay
7,-6.5
684,22.220029806082426
747,-4.3071705880914415
10,32371110.074613504
22,4262786.538241955
34,4262786.538241955
46,4262786.538241955
513,26169685.299264915
1291,1737415.8935042764
2,1, 1,21, 0,24, 0.00,60.00,WinterDesignDay
7,-6.5
684,22.220036430135234
747,-4.3071704438906435
10,30299705.423622083
22,3276627.552965166
34,3276627.552965166
46,3276627.552965166
513,26829620.766894493
1291,0.0
1,DALLAS FORT WORTH INTL AP ANN CLG .4% CONDNS DB=>MWB,  32.90, -97.02,  -6.00, 171.00
2,1, 8,21, 0, 1, 0.00,60.00,SummerDesignDay
7,28.595
684,23.888404985254656
747,27.758324340286492
10,5817152.470283794
22,2519341.8750856025
34,2519341.8750856025
46,2519341.8750856025
513,3107566.6941281534
1291,0.0
2,1, 8,21, 0, 2, 0.00,60.00,SummerDesignDay
7,28.063333333333333
684,23.888540710000928
747,27.25041364062598
10,5218757.804381809
22,2300485.626558334
34,2300485.626558334
46,2300485.626558334
513,2728028.2767534377
1291,0.0
2,1, 8,21, 0, 3, 0.00,60.00,SummerDesignDay
7,27.6875
684,23.888614732062564
747,26.883500952673156
10,4880700.679939045
22,2226600.0926204654
34,2226600.0926204654
46,2226600.0926204654
513,2463856.6862485413
1291,0.0
2,1, 8,21, 0, 4, 0.00,60.00,SummerDesignDay
7,27.357499999999998
684,23.888564139319403
747,26.571120423330104
10,4618394.565154765
22,2171740.4070940726
34,2171740.4070940726
46,2171740.4070940726
513,2256410.2569906544
1291,0.0
2,1, 8,21, 0, 5, 0.00,60.00,SummerDesignDay
7,27.091666666666665
684,23.88863414414371
747,26.30965092621685
10,4655779.653240971
22,2335718.210080423
34,2335718.210080423
46,2335718.210080423
513,2125533.271833996
1291,0.0
2,1, 8,21, 0, 6, 0.00,60.00,SummerDesignDay
7,27.128333333333334
684,23.88903215585066
747,26.28490110104417
10,6920247.332622566
22,2902111.397117286
34,2902111.397117286
46,2902111.397117286
513,2142277.091249049
1291,1674368.7337628424
2,1, 8,21, 0, 7, 0.00,60.00,SummerDesignDay
7,27.66916666666667
684,23.889434223404933
747,26.854455931219178
10,6219437.880974773
22,3490045.529346395
34,3490045.529346395
46,3490045.529346395
513,2714397.4057305767
1291,0.0
2,1, 8,21, 0, 8, 0.00,60.00,SummerDesignDay
7,29.080833333333334
684,23.8889558477594
747,28.68493709993031
10,9357839.428108338
22,3872409.4070758065
34,3872409.4070758065
46,3872409.4070758065
513,3726025.317727738
1291,1746016.3587531848
2,1, 8,21, 0, 9, 0.00,60.00,SummerDesignDay
7,31.079166666666666
684,23.888951514470268
747,31.66655375427412
10,9695800.868006455
22,3436548.288166884
34,3436548.288166884
46,3436548.288166884
513,4498750.080889021
1291,1754611.6273478419
2,1, 8,21, 0,10, 0.00,60.00,SummerDesignDay
7,33.04083333333333
684,23.889346546519842
747,34.8360157012676
10,9447699.561891
22,3287629.4627914913
34,3287629.4627914913
46,3287629.4627914913
513,5316613.845450377
1291,839439.7502836505
2,1, 8,21, 0,11, 0.00,60.00,SummerDesignDay
7,34.782500000000006
684,23.889329377216573
747,37.61768185641295
10,10385235.721112683
22,3359522.254572048
34,3359522.254572048
46,3359522.254572048
513,6118472.381357823
1291,903224.58181733
2,1, 8,21, 0,12, 0.00,60.00,SummerDesignDay
7,36.11166666666667
684,23.89304024231667
747,39.73291297093282
10,11821705.527679589
22,3405817.7973429887
34,3405817.7973429887
46,3405817.7973429887
513,6689984.946629157
1291,1721886.2803419589
2,1, 8,21, 0,13, 0.00,60.00,SummerDesignDay
7,37.083333333333336
684,24.01860416014172
747,41.120778865442354
10,10231751.458346609
22,3343416.5845005065
34,3343416.5845005065
46,3343416.5845005065
513,6884318.37048062
1291,0.0
2,1, 8,21, 0,14, 0.00,60.00,SummerDesignDay
7,37.770833333333336
684,24.4049084489797
747,41.841577958623475
10,11925015.948904615
22,3277253.218523652
34,3277253.218523652
46,3277253.218523652
513,6940684.2945551695
1291,1703061.9324603109
2,1, 8,21, 0,15, 0.00,60.00,SummerDesignDay
7,38.0
684,24.907425420652075
747,41.789273709406615
10,10248670.280334782
22,3272159.2094632606
34,3272159.2094632606
46,3272159.2094632606
513,6972494.567506039
1291,0.0
2,1, 8,21, 0,16, 0.00,60.00,SummerDesignDay
7,37.615
684,25.32931913922764
747,40.81200980961492
10,12211274.096524244
22,3549357.552769049
34,3549357.552769049
46,3549357.552769049
513,6962764.04429757
1291,1692190.5602907895
2,1, 8,21, 0,17, 0.00,60.00,SummerDesignDay
7,36.82666666666667
684,25.57792040030655
747,39.07812338081203
10,11413781.963035414
22,4479188.816479392
34,4479188.816479392
46,4479188.816479392
513,6919598.200658221
1291,0.0
2,1, 8,21, 0,18, 0.00,60.00,SummerDesignDay
7,35.818333333333335
684,25.62774051552643
747,36.86536805964991
10,14212908.449391657
22,5624286.233621349
34,5624286.233621349
46,5624286.233621349
513,6855551.071226219
1291,1712185.32704358
2,1, 8,21, 0,19, 0.00,60.00,SummerDesignDay
7,34.3975
684,25.293007360840864
747,34.286247158901766
10,13594678.670183305
22,6045788.3062472865
34,6045788.3062472865
46,6045788.3062472865
513,6753332.914745231
1291,579340.1596906267
2,1, 8,21, 0,20, 0.00,60.00,SummerDesignDay
7,33.00416666666666
684,24.508292750564845
747,32.08353693411114
10,13977922.133151773
22,5971945.160957614
34,5971945.160957614
46,5971945.160957614
513,6636584.223941332
1291,1150132.6531727565
2,1, 8,21, 0,21, 0.00,60.00,SummerDesignDay
7,31.9225
684,23.93529385598985
747,30.776537642589833
10,14028323.88774903
22,5899533.255808762
34,5899533.255808762
46,5899533.255808762
513,6186197.089481937
1291,1723333.4473782608
2,1, 8,21, 0,22, 0.00,60.00,SummerDesignDay
7,30.9325
684,23.889520170036075
747,29.867581673882636
10,10742487.81340298
22,5386254.039457358
34,5386254.039457358
46,5386254.039457358
513,5144568.521593007
1291,0.0
2,1, 8,21, 0,23, 0.00,60.00,SummerDesignDay
7,30.07083333333333
684,23.888640527372697
747,29.089257942764856
10,10477219.19865609
22,4262786.538241955
34,4262786.538241955
46,4262786.538241955
513,4321085.839846869
1291,1692124.4769649068
2,1, 8,21, 0,24, 0.00,60.00,SummerDesignDay
7,29.30083333333333
684,23.888452203596056
747,28.4000419468944
10,7121458.722865741
22,3276627.552965166
34,3276627.552965166
46,3276627.552965166
513,3651374.06613815
1291,0.0
1,ANNUAL,  32.90, -97.02,  -6.00, 171.00
2,1, 2, 1, 0, 1, 0.00,60.00,Monday
7,5.316666666666666
684,22.22232382980556
747,8.025038546163914
10,12011415.910096336
22,2498479.0097388276
34,2498479.0097388276
46,2498479.0097388276
513,9322692.99928747
1291,0.0
2,1, 2, 1, 0, 2, 0.00,60.00,Monday
7,3.608333333333333
684,22.22241861230893
747,6.143008900362666
10,14294097.062897488
22,2287908.203727021
34,2287908.203727021
46,2287908.203727021
513,11815944.958100433
1291,0.0
2,1, 2, 1, 0, 3, 0.00,60.00,Monday
7,3.4
684,22.222428956450063
747,5.586101260472833
10,15180669.399866376
22,2218387.455766968
34,2218387.455766968
46,2218387.455766968
513,12772038.043029372
1291,0.0
2,1, 2, 1, 0, 4, 0.00,60.00,Monday
7,3.4
684,22.222415281661995
747,5.385565097621893
10,16014341.455491778
22,2167160.80380385
34,2167160.80380385
46,2167160.80380385
513,13656936.750617892
1291,0.0
2,1, 2, 1, 0, 5, 0.00,60.00,Monday
7,3.108333333333333
684,22.222407199477242
747,4.925948620540044
10,17225459.089776445
22,2326991.86639299
34,2326991.86639299
46,2326991.86639299
513,14703939.052056901
1291,0.0
2,1, 2, 1, 0, 6, 0.00,60.00,Monday
7,2.5500000000000003
684,22.222411797389857
747,4.411461573509851
10,19871883.915931966
22,2888368.680950925
34,2888368.680950925
46,2888368.680950925
513,15076920.939940244
1291,1705104.1845474092
2,1, 2, 1, 0, 7, 0.00,60.00,Monday
7,2.0083333333333333
684,22.222413493807803
747,4.043815560173499
10,20493787.101879492
22,3455726.295687276
34,3455726.295687276
46,3455726.295687276
513,15226277.932757726
1291,1796787.9275366901
2,1, 2, 1, 0, 8, 0.00,60.00,Monday
7,1.8
684,22.250867359592167
747,3.5725497572370215
10,12488724.576258164
22,3804342.957438114
34,3804342.957438114
46,3804342.957438114
513,6834316.193725087
1291,1836677.0805433535
2,1, 2, 1, 0, 9, 0.00,60.00,Monday
7,3.025
684,22.222426402638064
747,6.683316845709825
10,11808903.752718527
22,3331560.1762823085
34,3331560.1762823085
46,3331560.1762823085
513,5848479.927911379
1291,2622972.7769221338
2,1, 2, 1, 0,10, 0.00,60.00,Monday
7,4.95
684,22.22236200281819
747,9.795367134650196
10,10350806.39717001
22,3145052.4172653225
34,3145052.4172653225
46,3145052.4172653225
513,4310148.680785325
1291,2891588.795753878
2,1, 2, 1, 0,11, 0.00,60.00,Monday
7,7.2749999999999995
684,22.19290219588284
747,12.273289133295926
10,6796863.112092475
22,3201316.809840188
34,3201316.809840188
46,3201316.809840188
513,1786121.125044459
1291,1805408.6738423463
2,1, 2, 1, 0,12, 0.00,60.00,Monday
7,8.983333333333333
684,22.206165588395262
747,14.750271072658762
10,5334213.876889103
22,3245056.7517732778
34,3245056.7517732778
46,3245056.7517732778
513,306019.6883571331
1291,1779120.9333932102
2,1, 2, 1, 0,13, 0.00,60.00,Monday
7,11.091666666666669
684,22.37003739812238
747,16.72930516528039
10,4759048.916192045
22,3197289.398662933
34,3197289.398662933
46,3197289.398662933
513,154285.71428571438
1291,1403457.2998779165
2,1, 2, 1, 0,14, 0.00,60.00,Monday
7,13.233333333333334
684,22.796134541590984
747,17.23430974782273
10,3654460.9739255947
22,3143544.016284607
34,3143544.016284607
46,3143544.016284607
513,154285.71428571438
1291,352614.73998979107
2,1, 2, 1, 0,15, 0.00,60.00,Monday
7,14.191666666666668
684,23.333700057515554
747,18.315770501739106
10,5045345.526720453
22,3152610.4832543777
34,3152610.4832543777
46,3152610.4832543777
513,154285.71428571438
1291,1734432.8258148786
2,1, 2, 1, 0,16, 0.00,60.00,Monday
7,14.75
684,23.56129030917104
747,17.901484426324817
10,5326762.771607827
22,3436226.8211706067
34,3436226.8211706067
46,3436226.8211706067
513,154285.71428571438
1291,1729288.2969846705
2,1, 2, 1, 0,17, 0.00,60.00,Monday
7,14.358333333333334
684,23.2172600100303
747,15.677257758084869
10,4538171.723939787
22,4368891.063756271
34,4368891.063756271
46,4368891.063756271
513,154285.71428571438
1291,0.0
2,1, 2, 1, 0,18, 0.00,60.00,Monday
7,12.033333333333333
684,22.78952394883605
747,13.025650864080154
10,7458612.659301533
22,5514884.4344747625
34,5514884.4344747625
46,5514884.4344747625
513,154285.71428571438
1291,1768556.6930405477
2,1, 2, 1, 0,19, 0.00,60.00,Monday
7,10.291666666666666
684,22.370111089177367
747,10.496775955880901
10,8102333.0675416235
22,5936377.747743254
34,5936377.747743254
46,5936377.747743254
513,154285.71428571438
1291,1795452.316012499
2,1, 2, 1, 0,20, 0.00,60.00,Monday
7,9.65
684,22.192528495810475
747,10.455776083529596
10,9058864.244791754
22,5860851.394397255
34,5860851.394397255
46,5860851.394397255
513,1176960.1101624158
1291,1801792.6451520133
2,1, 2, 1, 0,21, 0.00,60.00,Monday
7,8.816666666666666
684,22.201669120200105
747,9.690518361802496
10,10178913.329980845
22,5788324.826793473
34,5788324.826793473
46,5788324.826793473
513,2384347.7910852716
1291,1786980.6170220305
2,1, 2, 1, 0,22, 0.00,60.00,Monday
7,8.691666666666666
684,22.22245750235732
747,10.426522097335202
10,10676281.39362491
22,5275040.848512863
34,5275040.848512863
46,5275040.848512863
513,3422857.5350424973
1291,1766717.7577169354
2,1, 2, 1, 0,23, 0.00,60.00,Monday
7,7.033333333333335
684,22.222417581040833
747,10.593542551097869
10,11485368.021758247
22,4175767.1653783405
34,4175767.1653783405
46,4175767.1653783405
513,5375515.196930081
1291,1732863.3158474679
2,1, 2, 1, 0,24, 0.00,60.00,Monday
7,6.633333333333333
684,22.222368132643997
747,9.914836838698632
10,10443659.417895515
22,3228431.3064444675
34,3228431.3064444675
46,3228431.3064444675
513,7021771.007688622
1291,0.0
2,2, 2, 2, 0, 1, 0.00,60.00,Tuesday
7,6.658333333333334
684,22.222687172527614
747,10.459158157303007
10,12401541.142428014
22,2498479.0097388276
34,2498479.0097388276
46,2498479.0097388276
513,8046447.017142997
1291,1666371.2144761516
2,2, 2, 2, 0, 2, 0.00,60.00,Tuesday
7,6.2
684,22.22302890160185
747,10.357699850834315
10,11461127.498991517
22,2287908.203727021
34,2287908.203727021
46,2287908.203727021
513,8982975.394194458
1291,0.0
2,2, 2, 2, 0, 3, 0.00,60.00,Tuesday
7,5.1499999999999995
684,22.22315844043285
747,8.99493543386109
10,12694320.664177038
22,2218387.455766968
34,2218387.455766968
46,2218387.455766968
513,10285689.30734003
1291,0.0
2,2, 2, 2, 0, 4, 0.00,60.00,Tuesday
7,5.158333333333334
684,22.222731707449967
747,9.24018079484975
10,12786963.527887803
22,2167160.80380385
34,2167160.80380385
46,2167160.80380385
513,10429558.823013915
1291,0.0
2,2, 2, 2, 0, 5, 0.00,60.00,Tuesday
7,5.991666666666667
684,22.222602756241482
747,8.939480310997025
10,13045864.386345917
22,2326991.86639299
34,2326991.86639299
46,2326991.86639299
513,10524344.348626373
1291,0.0
2,2, 2, 2, 0, 6, 0.00,60.00,Tuesday
7,5.5
684,22.222388383412653
747,8.358667268280238
10,15744235.442084018
22,2888368.680950925
34,2888368.680950925
46,2888368.680950925
513,10949507.633079048
1291,1704869.0175606548
2,2, 2, 2, 0, 7, 0.00,60.00,Tuesday
7,5.408333333333334
684,22.22240526765745
747,7.8144542078488115
10,15933981.428010743
22,3455726.295687276
34,3455726.295687276
46,3455726.295687276
513,10666022.630692108
1291,1797237.5557335583
2,2, 2, 2, 0, 8, 0.00,60.00,Tuesday
7,4.941666666666666
684,22.222474354896892
747,7.70623628035262
10,12598388.456606567
22,3804342.957438114
34,3804342.957438114
46,3804342.957438114
513,6943978.546235295
1291,1836678.608381548
2,2, 2, 2, 0, 9, 0.00,60.00,Tuesday
7,6.733333333333333
684,22.222394061023664
747,11.31992870297155
10,8956066.418857647
22,3331560.1762823085
34,3331560.1762823085
46,3331560.1762823085
513,3772926.8573234384
1291,1845688.5136491924
2,2, 2, 2, 0,10, 0.00,60.00,Tuesday
7,9.333333333333334
684,22.215709629507945
747,13.979354451913187
10,8910084.510165617
22,3145052.4172653225
34,3145052.4172653225
46,3145052.4172653225
513,2098182.6314221146
1291,3662832.958112698
2,2, 2, 2, 0,11, 0.00,60.00,Tuesday
7,11.341666666666667
684,22.234275679094292
747,15.005349822498971
10,5293395.652716808
22,3201316.809840188
34,3201316.809840188
46,3201316.809840188
513,282789.08270901034
1291,1805273.2568021275
2,2, 2, 2, 0,12, 0.00,60.00,Tuesday
7,13.233333333333334
684,22.551077815960685
747,17.424179511042265
10,5182307.56444704
22,3245056.7517732778
34,3245056.7517732778
46,3245056.7517732778
513,154285.71428571438
1291,1778948.5950225648
2,2, 2, 2, 0,13, 0.00,60.00,Tuesday
7,14.541666666666666
684,22.91292791798043
747,18.507675810968887
10,3355591.616314129
22,3197289.398662933
34,3197289.398662933
46,3197289.398662933
513,154285.71428571438
1291,0.0
2,2, 2, 2, 0,14, 0.00,60.00,Tuesday
7,16.05
684,23.36188158032184
747,19.206171453842696
10,5047555.8704621475
22,3143544.016284607
34,3143544.016284607
46,3143544.016284607
513,154285.71428571438
1291,1745709.6365263443
2,2, 2, 2, 0,15, 0.00,60.00,Tuesday
7,17.441666666666666
684,23.845331798500215
747,19.785232872390797
10,5108787.496041097
22,3152610.4832543777
34,3152610.4832543777
46,3152610.4832543777
513,217978.15519929712
1291,1734182.3542219396
2,2, 2, 2, 0,16, 0.00,60.00,Tuesday
7,17.55
684,23.89353123873616
747,18.82056441459726
10,5376314.111269181
22,3436226.8211706067
34,3436226.8211706067
46,3436226.8211706067
513,203937.62617453912
1291,1729187.7247571987
2,2, 2, 2, 0,17, 0.00,60.00,Tuesday
7,17.3
684,23.78346391117528
747,17.668586980064838
10,4540796.061290696
22,4368891.063756271
34,4368891.063756271
46,4368891.063756271
513,156910.05163662444
1291,0.0
2,2, 2, 2, 0,18, 0.00,60.00,Tuesday
7,15.958333333333334
684,23.472441346136133
747,16.130978076020977
10,7458044.865750749
22,5514884.4344747625
34,5514884.4344747625
46,5514884.4344747625
513,154285.71428571438
1291,1767988.8994897625
2,2, 2, 2, 0,19, 0.00,60.00,Tuesday
7,13.775
684,23.05789984548184
747,14.001969081146376
10,8101856.5348758865
22,5936377.747743254
34,5936377.747743254
46,5936377.747743254
513,154285.71428571438
1291,1794975.7833467606
2,2, 2, 2, 0,20, 0.00,60.00,Tuesday
7,11.908333333333333
684,22.584017672724258
747,12.187333833530047
10,8035829.238329454
22,5860851.394397255
34,5860851.394397255
46,5860851.394397255
513,154285.71428571438
1291,1801432.0345664155
2,2, 2, 2, 0,21, 0.00,60.00,Tuesday
7,11.200000000000001
684,22.189805864183068
747,11.59257374759924
10,8649406.661067782
22,5788324.826793473
34,5788324.826793473
46,5788324.826793473
513,854643.4499101767
1291,1787178.289284062
2,2, 2, 2, 0,22, 0.00,60.00,Tuesday
7,10.5
684,22.19477458586299
747,11.363969765062704
10,9896910.36564369
22,5275040.848512863
34,5275040.848512863
46,5275040.848512863
513,2643466.291226088
1291,1766737.9735521278
2,2, 2, 2, 0,23, 0.00,60.00,Tuesday
7,9.358333333333334
684,22.22244718931455
747,10.915668087014227
10,10222793.676237235
22,4175767.1653783405
34,4175767.1653783405
46,4175767.1653783405
513,4112951.376669151
1291,1732852.7905873866
2,2, 2, 2, 0,24, 0.00,60.00,Tuesday
7,8.316666666666666
684,22.22243298312011
747,10.100702062419412
10,9242866.697822705
22,3228431.3064444675
34,3228431.3064444675
46,3228431.3064444675
513,5820978.287615812
1291,0.0
2,3, 2, 3, 0, 1, 0.00,60.00,Wednesday
7,7.55
684,22.222428491277302
747,9.251020113174548
10,11913242.081341136
22,2498479.0097388276
34,2498479.0097388276
46,2498479.0097388276
513,7557821.808611651
1291,1666697.3619206198
2,3, 2, 3, 0, 2, 0.00,60.00,Wednesday
7,7.008333333333333
684,22.222420987999243
747,8.776421019626575
10,11204569.282658016
22,2287908.203727021
34,2287908.203727021
46,2287908.203727021
513,8726417.177860955
1291,0.0
2,3, 2, 3, 0, 3, 0.00,60.00,Wednesday
7,6.45
684,22.222414993693075
747,8.35422072171662
10,12035606.806277927
22,2218387.455766968
34,2218387.455766968
46,2218387.455766968
513,9626975.449440919
1291,0.0
2,3, 2, 3, 0, 4, 0.00,60.00,Wednesday
7,5.5
684,22.22241849309209
747,7.6054302326262935
10,12854884.168191608
22,2167160.80380385
34,2167160.80380385
46,2167160.80380385
513,10497479.463317722
1291,0.0
2,3, 2, 3, 0, 5, 0.00,60.00,Wednesday
7,5.0
684,22.222421333084128
747,7.08752738343131
10,13530588.90345044
22,2326991.86639299
34,2326991.86639299
46,2326991.86639299
513,11009068.865730898
1291,0.0
2,3, 2, 3, 0, 6, 0.00,60.00,Wednesday
7,4.3583333333333325
684,22.222421305563785
747,6.659190745694892
10,16270591.806051603
22,2888368.680950925
34,2888368.680950925
46,2888368.680950925
513,11475528.12403715
1291,1705204.8905701397
2,3, 2, 3, 0, 7, 0.00,60.00,Wednesday
7,4.191666666666666
684,22.222420903498488
747,6.621704632318007
10,16781236.424594797
22,3455726.295687276
34,3455726.295687276
46,3455726.295687276
513,11513187.27753912
1291,1797327.9054705992
2,3, 2, 3, 0, 8, 0.00,60.00,Wednesday
7,5.8
684,22.222418949793767
747,7.723058144918241
10,14880320.058298383
22,3804342.957438114
34,3804342.957438114
46,3804342.957438114
513,9225739.717583442
1291,1836849.0387252169
2,3, 2, 3, 0, 9, 0.00,60.00,Wednesday
7,8.666666666666666
684,22.222412587378017
747,11.240839490864014
10,9851350.404753562
22,3331560.1762823085
34,3331560.1762823085
46,3331560.1762823085
513,4668141.277030287
1291,1845758.0798382584
2,3, 2, 3, 0,10, 0.00,60.00,Wednesday
7,11.691666666666668
684,22.222885945799717
747,14.150846023752015
10,7863261.985656644
22,3145052.4172653225
34,3145052.4172653225
46,3145052.4172653225
513,2521984.640708389
1291,2192208.4243174503
2,3, 2, 3, 0,11, 0.00,60.00,Wednesday
7,14.533333333333333
684,22.25494485037257
747,16.02150223768493
10,6635406.9905900145
22,3201316.809840188
34,3201316.809840188
46,3201316.809840188
513,290721.7831397964
1291,3139351.894244548
2,3, 2, 3, 0,12, 0.00,60.00,Wednesday
7,16.983333333333334
684,22.781093744788496
747,18.614912971660697
10,3889039.468373387
22,3245056.7517732778
34,3245056.7517732778
46,3245056.7517732778
513,154285.71428571438
1291,485680.4989489127
2,3, 2, 3, 0,13, 0.00,60.00,Wednesday
7,18.775000000000002
684,23.316854064358534
747,20.089227536377518
10,4746320.631504699
22,3197289.398662933
34,3197289.398662933
46,3197289.398662933
513,154285.71428571438
1291,1390729.0151905701
2,3, 2, 3, 0,14, 0.00,60.00,Wednesday
7,19.75
684,23.82214071743833
747,20.955969748644012
10,5218659.410168557
22,3143544.016284607
34,3143544.016284607
46,3143544.016284607
513,325608.42518216337
1291,1745490.4653363046
2,3, 2, 3, 0,15, 0.00,60.00,Wednesday
7,20.700000000000003
684,23.8901013657825
747,21.598314195343775
10,5659498.336510463
22,3152610.4832543777
34,3152610.4832543777
46,3152610.4832543777
513,768499.5745308506
1291,1734371.7753597524
2,3, 2, 3, 0,16, 0.00,60.00,Wednesday
7,21.55
684,23.890952400545014
747,21.930424569578403
10,4233528.95270897
22,3436226.8211706067
34,3436226.8211706067
46,3436226.8211706067
513,790340.1923715272
1291,0.0
2,3, 2, 3, 0,17, 0.00,60.00,Wednesday
7,21.450000000000003
684,23.886276739425245
747,21.59829890863146
10,6685063.216748377
22,4368891.063756271
34,4368891.063756271
46,4368891.063756271
513,557270.005027278
1291,1743907.202067026
2,3, 2, 3, 0,18, 0.00,60.00,Wednesday
7,20.5
684,23.884728656561393
747,20.58120151239695
10,7710451.127093113
22,5514884.4344747625
34,5514884.4344747625
46,5514884.4344747625
513,406581.3668018242
1291,1768099.5083160177
2,3, 2, 3, 0,19, 0.00,60.00,Wednesday
7,19.358333333333334
684,23.893720475903333
747,19.447986036848036
10,8337541.124583165
22,5936377.747743254
34,5936377.747743254
46,5936377.747743254
513,390073.1463230675
1291,1794872.9410166848
2,3, 2, 3, 0,20, 0.00,60.00,Wednesday
7,18.316666666666663
684,23.880835395932635
747,18.396697701392785
10,8117662.634470563
22,5860851.394397255
34,5860851.394397255
46,5860851.394397255
513,236376.18564675126
1291,1801174.9593464884
2,3, 2, 3, 0,21, 0.00,60.00,Wednesday
7,17.55
684,23.689901092581234
747,17.55808485980422
10,7948422.928023997
22,5788324.826793473
34,5788324.826793473
46,5788324.826793473
513,154285.71428571438
1291,1786552.2918647393
2,3, 2, 3, 0,22, 0.00,60.00,Wednesday
7,17.008333333333333
684,23.293893919812678
747,16.96859121703667
10,7407396.324218483
22,5275040.848512863
34,5275040.848512863
46,5275040.848512863
513,154285.71428571438
1291,1766404.509067295
2,3, 2, 3, 0,23, 0.00,60.00,Wednesday
7,16.45
684,22.76688900643623
747,16.43011252730983
10,6263898.3632193105
22,4175767.1653783405
34,4175767.1653783405
46,4175767.1653783405
513,154285.71428571438
1291,1732623.1399528985
2,3, 2, 3, 0,24, 0.00,60.00,Wednesday
7,16.2
684,22.258813923513088
747,16.38010367783013
10,4236807.782218314
22,3228431.3064444675
34,3228431.3064444675
46,3228431.3064444675
513,814919.3720114217
1291,0.0
2,4, 2, 4, 0, 1, 0.00,60.00,Thursday
7,15.908333333333333
684,22.22315426932133
747,16.54485297064614
10,4916519.026779275
22,2498479.0097388276
34,2498479.0097388276
46,2498479.0097388276
513,2227796.1159704095
1291,0.0
2,4, 2, 4, 0, 2, 0.00,60.00,Thursday
7,15.700000000000001
684,22.223112876635337
747,16.352257544720025
10,7127560.815247513