Program Version,EnergyPlus, Version 22.2.0-c249759bad, YMD=2023.05.28 19:40
1,5,Environment Title[],Latitude[deg],Longitude[deg],Time Zone[],Elevation[m]
2,8,Day of Simulation[],Month[],Day of Month[],DST Indicator[1=yes 0=no],Hour[],StartMinute[],EndMinute[],DayType
3,5,Cumulative Day of Simulation[],Month[],Day of Month[],DST Indicator[1=yes 0=no],DayType  ! When Daily Meters Requested
4,2,Cumulative Days of Simulation[],Month[]  ! When Monthly Meters Requested
5,1,Cumulative Days of Simulation[] ! When Run Period Meters Requested
6,1,Calendar Year of Simulation[] ! When Annual Meters Requested
10,1,Electricity:Facility [J] !Hourly
22,1,Electricity:Building [J] !Hourly
34,1,Electricity:Zone:LIVING_UNIT1 [J] !Hourly
46,1,Electricity:SpaceType:GENERAL [J] !Hourly
513,1,Electricity:HVAC [J] !Hourly
1291,1,Electricity:Plant [J] !Hourly
End of Data Dictionary
1,DALLAS FORT WORTH INTL AP ANN HTG 99.6% CONDNS DB,  32.90, -97.02,  -6.00, 171.00
2,1, 1,21, 0, 1, 0.00,60.00,WinterDesignDay
10,30100086.116321698
22,2519341.8750856025
34,2519341.8750856025
46,2519341.8750856025
513,27390500.340166062
1291,0.0
2,1, 1,21, 0, 2, 0.00,60.00,WinterDesignDay
10,30192447.259528846
22,2300485.626558334
34,2300485.626558334
46,2300485.626558334
513,27701717.73190047
1291,0.0
2,1, 1,21, 0, 3, 0.00,60.00,WinterDesignDay
10,30269187.8897369
22,2226600.0926204654
34,2226600.0926204654
46,2226600.0926204654
513,27852343.8960464
1291,0.0
2,1, 1,21, 0, 4, 0.00,60.00,WinterDesignDay
10,30300766.55134533
22,2171740.4070940726
34,2171740.4070940726
46,2171740.4070940726
513,27938782.243181217
1291,0.0
2,1, 1,21, 0, 5, 0.00,60.00,WinterDesignDay
10,31316603.10080392
22,2335718.210080423
34,2335718.210080423
46,2335718.210080423
513,27889240.864249893
1291,897115.8551470496
2,1, 1,21, 0, 6, 0.00,60.00,WinterDesignDay
10,31461481.98717679
22,2902111.397117286
34,2902111.397117286
46,2902111.397117286
513,27572761.300951798
1291,785119.1786143141
2,1, 1,21, 0, 7, 0.00,60.00,WinterDesignDay
10,32551141.44360304
22,3490045.529346395
34,3490045.529346395
46,3490045.529346395
513,27245872.381827734
1291,1800228.5865311148
2,1, 1,21, 0, 8, 0.00,60.00,WinterDesignDay
10,32901779.03531629
22,3872409.4070758065
34,3872409.4070758065
46,3872409.4070758065
513,27171818.40799422
1291,1844162.8756946493
2,1, 1,21, 0, 9, 0.00,60.00,WinterDesignDay
10,35074615.988865
22,3436548.288166884
34,3436548.288166884
46,3436548.288166884
513,27916252.093687214
1291,3715924.7354082037
2,1, 1,21, 0,10, 0.00,60.00,WinterDesignDay
10,33461551.284719568
22,3287629.4627914913
34,3287629.4627914913
46,3287629.4627914913
513,28324326.605866596
1291,1845578.7126959981
2,1, 1,21, 0,11, 0.00,60.00,WinterDesignDay
10,33575069.38594553
22,3359522.254572048
34,3359522.254572048
46,3359522.254572048
513,28392765.982639097
1291,1818764.6453688992
2,1, 1,21, 0,12, 0.00,60.00,WinterDesignDay
10,33619589.49164282
22,3405817.7973429887
34,3405817.7973429887
46,3405817.7973429887
513,28419123.54868749
1291,1790631.6422468568
2,1, 1,21, 0,13, 0.00,60.00,WinterDesignDay
10,33557157.663626045
22,3343416.5845005065
34,3343416.5845005065
46,3343416.5845005065
513,28440598.95195837
1291,1769125.6238016847
2,1, 1,21, 0,14, 0.00,60.00,WinterDesignDay
10,33480983.300998494
22,3277253.218523652
34,3277253.218523652
46,3277253.218523652
513,28444483.216717333
1291,1755230.3623920304
2,1, 1,21, 0,15, 0.00,60.00,WinterDesignDay
10,32014605.825602613
22,3272159.2094632606
34,3272159.2094632606
46,3272159.2094632606
513,28426536.53877621
1291,311893.5739976637
2,1, 1,21, 0,16, 0.00,60.00,WinterDesignDay
10,33265441.859461848
22,3549357.552769049
34,3549357.552769049
46,3549357.552769049
513,28283038.103195995
1291,1426084.2643299685
2,1, 1,21, 0,17, 0.00,60.00,WinterDesignDay
10,33984212.2085874
22,4479188.816479392
34,4479188.816479392
46,4479188.816479392
513,27737751.801042356
1291,1752276.6451678472
2,1, 1,21, 0,18, 0.00,60.00,WinterDesignDay
10,34212949.2197391
22,5624286.233621349
34,5624286.233621349
46,5624286.233621349
513,26791219.44745773
1291,1776557.7211595166
2,1, 1,21, 0,19, 0.00,60.00,WinterDesignDay
10,33911581.287285
22,6045788.3062472865
34,6045788.3062472865
46,6045788.3062472865
513,25845448.922937114
1291,1804126.7686004385
2,1, 1,21, 0,20, 0.00,60.00,WinterDesignDay
10,33555382.47293849
22,5971945.160957614
34,5971945.160957614
46,5971945.160957614
513,25553698.99420874
1291,1810478.2226920738
2,1, 1,21, 0,21, 0.00,60.00,WinterDesignDay
10,33359461.22354567
22,5899533.255808762
34,5899533.255808762
46,5899533.255808762
513,25445027.199177142
1291,1795640.6734796972
2,1, 1,21, 0,22, 0.00,60.00,WinterDesignDay
10,32934392.46793121
22,5386254.039457358
34,5386254.039457358
46,5386254.039457358
513,25561896.81335377
1291,1774576.3627674738
2,1, 1,21, 0,23, 0.00,60.00,WinterDesignDay
10,32371110.074613504
22,4262786.538241955
34,4262786.538241955
46,4262786.538241955
513,26169685.299264915
1291,1737415.8935042764
2,1, 1,21, 0,24, 0.00,60.00,WinterDesignDay
10,30299705.423622083
22,3276627.552965166
34,3276627.552965166
46,3276627.552965166
513,26829620.766894493
1291,0.0
1,DALLAS FORT WORTH INTL AP ANN CLG .4% CONDNS DB=>MWB,  32.90, -97.02,  -6.00, 171.00
2,1, 8,21, 0, 1, 0.00,60.00,SummerDesignDay
10,5817152.470283794
22,2519341.8750856025
34,2519341.8750856025
46,2519341.8750856025
513,3107566.6941281534
1291,0.0
2,1, 8,21, 0, 2, 0.00,60.00,SummerDesignDay
10,5218757.804381809
22,2300485.626558334
34,2300485.626558334
46,2300485.626558334
513,2728028.2767534377
1291,0.0
2,1, 8,21, 0, 3, 0.00,60.00,SummerDesignDay
10,4880700.679939045
22,2226600.0926204654
34,2226600.0926204654
46,2226600.0926204654
513,2463856.6862485413
1291,0.0
2,1, 8,21, 0, 4, 0.00,60.00,SummerDesignDay
10,4618394.565154765
22,2171740.4070940726
34,2171740.4070940726
46,2171740.4070940726
513,2256410.2569906544
1291,0.0
2,1, 8,21, 0, 5, 0.00,60.00,SummerDesignDay
10,4655779.653240971
22,2335718.210080423
34,2335718.210080423
46,2335718.210080423
513,2125533.271833996
1291,0.0
2,1, 8,21, 0, 6, 0.00,60.00,SummerDesignDay
10,6920247.332622566
22,2902111.397117286
34,2902111.397117286
46,2902111.397117286
513,2142277.091249049
1291,1674368.7337628424
2,1, 8,21, 0, 7, 0.00,60.00,SummerDesignDay
10,6219437.880974773
22,3490045.529346395
34,3490045.529346395
46,3490045.529346395
513,2714397.4057305767
1291,0.0
2,1, 8,21, 0, 8, 0.00,60.00,SummerDesignDay
10,9357839.428108338
22,3872409.4070758065
34,3872409.4070758065
46,3872409.4070758065
513,3726025.317727738
1291,1746016.3587531848
2,1, 8,21, 0, 9, 0.00,60.00,SummerDesignDay
10,9695800.868006455
22,3436548.288166884
34,3436548.288166884
46,3436548.288166884
513,4498750.080889021
1291,1754611.6273478419
2,1, 8,21, 0,10, 0.00,60.00,SummerDesignDay
10,9447699.561891
22,3287629.4627914913
34,3287629.4627914913
46,3287629.4627914913
513,5316613.845450377
1291,839439.7502836505
2,1, 8,21, 0,11, 0.00,60.00,SummerDesignDay
10,10385235.721112683
22,3359522.254572048
34,3359522.254572048
46,3359522.254572048
513,6118472.381357823
1291,903224.58181733
2,1, 8,21, 0,12, 0.00,60.00,SummerDesignDay
10,11821705.527679589
22,3405817.7973429887
34,3405817.7973429887
46,3405817.7973429887
513,6689984.946629157
1291,1721886.2803419589
2,1, 8,21, 0,13, 0.00,60.00,SummerDesignDay
10,10231751.458346609
22,3343416.5845005065
34,3343416.5845005065
46,3343416.5845005065
513,6884318.37048062
1291,0.0
2,1, 8,21, 0,14, 0.00,60.00,SummerDesignDay
10,11925015.948904615
22,3277253.218523652
34,3277253.218523652
46,3277253.218523652
513,6940684.2945551695
1291,1703061.9324603109
2,1, 8,21, 0,15, 0.00,60.00,SummerDesignDay
10,10248670.280334782
22,3272159.2094632606
34,3272159.2094632606
46,3272159.2094632606
513,6972494.567506039
1291,0.0
2,1, 8,21, 0,16, 0.00,60.00,SummerDesignDay
10,12211274.096524244
22,3549357.552769049
34,3549357.552769049
46,3549357.552769049
513,6962764.04429757
1291,1692190.5602907895
2,1, 8,21, 0,17, 0.00,60.00,SummerDesignDay
10,11413781.963035414
22,4479188.816479392
34,4479188.816479392
46,4479188.816479392
513,6919598.200658221
1291,0.0
2,1, 8,21, 0,18, 0.00,60.00,SummerDesignDay
10,14212908.449391657
22,5624286.233621349
34,5624286.233621349
46,5624286.233621349
513,6855551.071226219
1291,1712185.32704358
2,1, 8,21, 0,19, 0.00,60.00,SummerDesignDay
10,13594678.670183305
22,6045788.3062472865
34,6045788.3062472865
46,6045788.3062472865
513,6753332.914745231
1291,579340.1596906267
2,1, 8,21, 0,20, 0.00,60.00,SummerDesignDay
10,13977922.133151773
22,5971945.160957614
34,5971945.160957614
46,5971945.160957614
513,6636584.223941332
1291,1150132.6531727565
2,1, 8,21, 0,21, 0.00,60.00,SummerDesignDay
10,14028323.88774903
22,5899533.255808762
34,5899533.255808762
46,5899533.255808762
513,6186197.089481937
1291,1723333.4473782608
2,1, 8,21, 0,22, 0.00,60.00,SummerDesignDay
10,10742487.81340298
22,5386254.039457358
34,5386254.039457358
46,5386254.039457358
513,5144568.521593007
1291,0.0
2,1, 8,21, 0,23, 0.00,60.00,SummerDesignDay
10,10477219.19865609
22,4262786.538241955
34,4262786.538241955
46,4262786.538241955
513,4321085.839846869
1291,1692124.4769649068
2,1, 8,21, 0,24, 0.00,60.00,SummerDesignDay
10,7121458.722865741
22,3276627.552965166
34,3276627.552965166
46,3276627.552965166
513,3651374.06613815
1291,0.0
1,ANNUAL,  32.90, -97.02,  -6.00, 171.00
2,1, 2, 1, 0, 1, 0.00,60.00,Monday
10,12011415.910096336
22,2498479.0097388276
34,2498479.0097388276
46,2498479.0097388276
513,9322692.99928747
1291,0.0
2,1, 2, 1, 0, 2, 0.00,60.00,Monday
10,14294097.062897488
22,2287908.203727021
34,2287908.203727021
46,2287908.203727021
513,11815944.958100433
1291,0.0
2,1, 2, 1, 0, 3, 0.00,60.00,Monday
10,15180669.399866376
22,2218387.455766968
34,2218387.455766968
46,2218387.455766968
513,12772038.043029372
1291,0.0
2,1, 2, 1, 0, 4, 0.00,60.00,Monday
10,16014341.455491778
22,2167160.80380385
34,2167160.80380385
46,2167160.80380385
513,13656936.750617892
1291,0.0
2,1, 2, 1, 0, 5, 0.00,60.00,Monday
10,17225459.089776445
22,2326991.86639299
34,2326991.86639299
46,2326991.86639299
513,14703939.052056901
1291,0.0
2,1, 2, 1, 0, 6, 0.00,60.00,Monday
10,19871883.915931966
22,2888368.680950925
34,2888368.680950925
46,2888368.680950925
513,15076920.939940244
1291,1705104.1845474092
2,1, 2, 1, 0, 7, 0.00,60.00,Monday
10,20493787.101879492
22,3455726.295687276
34,3455726.295687276
46,3455726.295687276
513,15226277.932757726
1291,1796787.9275366901
2,1, 2, 1, 0, 8, 0.00,60.00,Monday
10,12488724.576258164
22,3804342.957438114
34,3804342.957438114
46,3804342.957438114
513,6834316.193725087
1291,1836677.0805433535
2,1, 2, 1, 0, 9, 0.00,60.00,Monday
10,11808903.752718527
22,3331560.1762823085
34,3331560.1762823085
46,3331560.1762823085
513,5848479.927911379
1291,2622972.7769221338
2,1, 2, 1, 0,10, 0.00,60.00,Monday
10,10350806.39717001
22,3145052.4172653225
34,3145052.4172653225
46,3145052.4172653225
513,4310148.680785325
1291,2891588.795753878
2,1, 2, 1, 0,11, 0.00,60.00,Monday
10,6796863.112092475
22,3201316.809840188
34,3201316.809840188
46,3201316.809840188
513,1786121.125044459
1291,1805408.6738423463
2,1, 2, 1, 0,12, 0.00,60.00,Monday
10,5334213.876889103
22,3245056.7517732778
34,3245056.7517732778
46,3245056.7517732778
513,306019.6883571331
1291,1779120.9333932102
2,1, 2, 1, 0,13, 0.00,60.00,Monday
10,4759048.916192045
22,3197289.398662933
34,3197289.398662933
46,3197289.398662933
513,154285.71428571438
1291,1403457.2998779165
2,1, 2, 1, 0,14, 0.00,60.00,Monday
10,3654460.9739255947
22,3143544.016284607
34,3143544.016284607
46,3143544.016284607
513,154285.71428571438
1291,352614.73998979107
2,1, 2, 1, 0,15, 0.00,60.00,Monday
10,5045345.526720453
22,3152610.4832543777
34,3152610.4832543777
46,3152610.4832543777
513,154285.71428571438
1291,1734432.8258148786
2,1, 2, 1, 0,16, 0.00,60.00,Monday
10,5326762.771607827
22,3436226.8211706067
34,3436226.8211706067
46,3436226.8211706067
513,154285.71428571438
1291,1729288.2969846705
2,1, 2, 1, 0,17, 0.00,60.00,Monday
10,4538171.723939787
22,4368891.063756271
34,4368891.063756271
46,4368891.063756271
513,154285.71428571438
1291,0.0
2,1, 2, 1, 0,18, 0.00,60.00,Monday
10,7458612.659301533
22,5514884.4344747625
34,5514884.4344747625
46,5514884.4344747625
513,154285.71428571438
1291,1768556.6930405477
2,1, 2, 1, 0,19, 0.00,60.00,Monday
10,8102333.0675416235
22,5936377.747743254
34,5936377.747743254
46,5936377.747743254
513,154285.71428571438
1291,1795452.316012499
2,1, 2, 1, 0,20, 0.00,60.00,Monday
10,9058864.244791754
22,5860851.394397255
34,5860851.394397255
46,5860851.394397255
513,1176960.1101624158
1291,1801792.6451520133
2,1, 2, 1, 0,21, 0.00,60.00,Monday
10,10178913.329980845
22,5788324.826793473
34,5788324.826793473
46,5788324.826793473
513,2384347.7910852716
1291,1786980.6170220305
2,1, 2, 1, 0,22, 0.00,60.00,Monday
10,10676281.39362491
22,5275040.848512863
34,5275040.848512863
46,5275040.848512863
513,3422857.5350424973
1291,1766717.7577169354
2,1, 2, 1, 0,23, 0.00,60.00,Monday
10,11485368.021758247
22,4175767.1653783405
34,4175767.1653783405
46,4175767.1653783405
513,5375515.196930081
1291,1732863.3158474679
2,1, 2, 1, 0,24, 0.00,60.00,Monday
10,10443659.417895515
22,3228431.3064444675
34,3228431.3064444675
46,3228431.3064444675
513,7021771.007688622
1291,0.0
2,2, 2, 2, 0, 1, 0.00,60.00,Tuesday
10,12401541.142428014
22,2498479.0097388276
34,2498479.0097388276
46,2498479.0097388276
513,8046447.017142997
1291,1666371.2144761516
2,2, 2, 2, 0, 2, 0.00,60.00,Tuesday
10,11461127.498991517
22,2287908.203727021
34,2287908.203727021
46,2287908.203727021
513,8982975.394194458
1291,0.0
2,2, 2, 2, 0, 3, 0.00,60.00,Tuesday
10,12694320.664177038
22,2218387.455766968
34,2218387.455766968
46,2218387.455766968
513,10285689.30734003
1291,0.0
2,2, 2, 2, 0, 4, 0.00,60.00,Tuesday
10,12786963.527887803
22,2167160.80380385
34,2167160.80380385
46,2167160.80380385
513,10429558.823013915
1291,0.0
2,2, 2, 2, 0, 5, 0.00,60.00,Tuesday
10,13045864.386345917
22,2326991.86639299
34,2326991.86639299
46,2326991.86639299
513,10524344.348626373
1291,0.0
2,2, 2, 2, 0, 6, 0.00,60.00,Tuesday
10,15744235.442084018
22,2888368.680950925
34,2888368.680950925
46,2888368.680950925
513,10949507.633079048
1291,1704869.0175606548
2,2, 2, 2, 0, 7, 0.00,60.00,Tuesday
10,15933981.428010743
22,3455726.295687276
34,3455726.295687276
46,3455726.295687276
513,10666022.630692108
1291,1797237.5557335583
2,2, 2, 2, 0, 8, 0.00,60.00,Tuesday
10,12598388.456606567
22,3804342.957438114
34,3804342.957438114
46,3804342.957438114
513,6943978.546235295
1291,1836678.608381548
2,2, 2, 2, 0, 9, 0.00,60.00,Tuesday
10,8956066.418857647
22,3331560.1762823085
34,3331560.1762823085
46,3331560.1762823085
513,3772926.8573234384
1291,1845688.5136491924
2,2, 2, 2, 0,10, 0.00,60.00,Tuesday
10,8910084.510165617
22,3145052.4172653225
34,3145052.4172653225
46,3145052.4172653225
513,2098182.6314221146
1291,3662832.958112698
2,2, 2, 2, 0,11, 0.00,60.00,Tuesday
10,5293395.652716808
22,3201316.809840188
34,3201316.809840188
46,3201316.809840188
513,282789.08270901034
1291,1805273.2568021275
2,2, 2, 2, 0,12, 0.00,60.00,Tuesday
10,5182307.56444704
22,3245056.7517732778
34,3245056.7517732778
46,3245056.7517732778
513,154285.71428571438
1291,1778948.5950225648
2,2, 2, 2, 0,13, 0.00,60.00,Tuesday
10,3355591.616314129
22,3197289.398662933
34,3197289.398662933
46,3197289.398662933
513,154285.71428571438
1291,0.0
2,2, 2, 2, 0,14, 0.00,60.00,Tuesday
10,5047555.8704621475
22,3143544.016284607
34,3143544.016284607
46,3143544.016284607
513,154285.71428571438
1291,1745709.6365263443
2,2, 2, 2, 0,15, 0.00,60.00,Tuesday
10,5108787.496041097
22,3152610.4832543777
34,3152610.4832543777
46,3152610.4832543777
513,217978.15519929712
1291,1734182.3542219396
2,2, 2, 2, 0,16, 0.00,60.00,Tuesday
10,5376314.111269181
22,3436226.8211706067
34,3436226.8211706067
46,3436226.8211706067
513,203937.62617453912
1291,1729187.7247571987
2,2, 2, 2, 0,17, 0.00,60.00,Tuesday
10,4540796.061290696
22,4368891.063756271
34,4368891.063756271
46,4368891.063756271
513,156910.05163662444
1291,0.0
2,2, 2, 2, 0,18, 0.00,60.00,Tuesday
10,7458044.865750749
22,5514884.4344747625
34,5514884.4344747625
46,5514884.4344747625
513,154285.71428571438
1291,1767988.8994897625
2,2, 2, 2, 0,19, 0.00,60.00,Tuesday
10,8101856.5348758865
22,5936377.747743254
34,5936377.747743254
46,5936377.747743254
513,154285.71428571438
1291,1794975.7833467606
2,2, 2, 2, 0,20, 0.00,60.00,Tuesday
10,8035829.238329454
22,5860851.394397255
34,5860851.394397255
46,5860851.394397255
513,154285.71428571438
1291,1801432.0345664155
2,2, 2, 2, 0,21, 0.00,60.00,Tuesday
10,8649406.661067782
22,5788324.826793473
34,5788324.826793473
46,5788324.826793473
513,854643.4499101767
1291,1787178.289284062
2,2, 2, 2, 0,22, 0.00,60.00,Tuesday
10,9896910.36564369
22,5275040.848512863
34,5275040.848512863
46,5275040.848512863
513,2643466.291226088
1291,1766737.9735521278
2,2, 2, 2, 0,23, 0.00,60.00,Tuesday
10,10222793.676237235
22,4175767.1653783405
34,4175767.1653783405
46,4175767.1653783405
513,4112951.376669151
1291,1732852.7905873866
2,2, 2, 2, 0,24, 0.00,60.00,Tuesday
10,9242866.697822705
22,3228431.3064444675
34,3228431.3064444675
46,3228431.3064444675
513,5820978.287615812
1291,0.0
2,3, 2, 3, 0, 1, 0.00,60.00,Wednesday
10,11913242.081341136
22,2498479.0097388276
34,2498479.0097388276
46,2498479.0097388276
513,7557821.808611651
1291,1666697.3619206198
2,3, 2, 3, 0, 2, 0.00,60.00,Wednesday
10,11204569.282658016
22,2287908.203727021
34,2287908.203727021
46,2287908.203727021
513,8726417.177860955
1291,0.0
2,3, 2, 3, 0, 3, 0.00,60.00,Wednesday
10,12035606.806277927
22,2218387.455766968
34,2218387.455766968
46,2218387.455766968
513,9626975.449440919
1291,0.0
2,3, 2, 3, 0, 4, 0.00,60.00,Wednesday
10,12854884.168191608
22,2167160.80380385
34,2167160.80380385
46,2167160.80380385
513,10497479.463317722
1291,0.0
2,3, 2, 3, 0, 5, 0.00,60.00,Wednesday
10,13530588.90345044
22,2326991.86639299
34,2326991.86639299
46,2326991.86639299
513,11009068.865730898
1291,0.0
2,3, 2, 3, 0, 6, 0.00,60.00,Wednesday
10,16270591.806051603
22,2888368.680950925
34,2888368.680950925
46,2888368.680950925
513,11475528.12403715
1291,1705204.8905701397
2,3, 2, 3, 0, 7, 0.00,60.00,Wednesday
10,16781236.424594797
22,3455726.295687276
34,3455726.295687276
46,3455726.295687276
513,11513187.27753912
1291,1797327.9054705992
2,3, 2, 3, 0, 8, 0.00,60.00,Wednesday
10,14880320.058298383
22,3804342.957438114
34,3804342.957438114
46,3804342.957438114
513,9225739.717583442
1291,1836849.0387252169
2,3, 2, 3, 0, 9, 0.00,60.00,Wednesday
10,9851350.404753562
22,3331560.1762823085
34,3331560.1762823085
46,3331560.1762823085
513,4668141.277030287
1291,1845758.0798382584
2,3, 2, 3, 0,10, 0.00,60.00,Wednesday
10,7863261.985656644
22,3145052.4172653225
34,3145052.4172653225
46,3145052.4172653225
513,2521984.640708389
1291,2192208.4243174503
2,3, 2, 3, 0,11, 0.00,60.00,Wednesday
10,6635406.9905900145
22,3201316.809840188
34,3201316.809840188
46,3201316.809840188
513,290721.7831397964
1291,3139351.894244548
2,3, 2, 3, 0,12, 0.00,60.00,Wednesday
10,3889039.468373387
22,3245056.7517732778
34,3245056.7517732778
46,3245056.7517732778
513,154285.71428571438
1291,485680.4989489127
2,3, 2, 3, 0,13, 0.00,60.00,Wednesday
10,4746320.631504699
22,3197289.398662933
34,3197289.398662933
46,3197289.398662933
513,154285.71428571438
1291,1390729.0151905701
2,3, 2, 3, 0,14, 0.00,60.00,Wednesday
10,5218659.410168557
22,3143544.016284607
34,3143544.016284607
46,3143544.016284607
513,325608.42518216337
1291,1745490.4653363046
2,3, 2, 3, 0,15, 0.00,60.00,Wednesday
10,5659498.336510463
22,3152610.4832543777
34,3152610.4832543777
46,3152610.4832543777
513,768499.5745308506
1291,1734371.7753597524
2,3, 2, 3, 0,16, 0.00,60.00,Wednesday
10,4233528.95270897
22,3436226.8211706067
34,3436226.8211706067
46,3436226.8211706067
513,790340.1923715272
1291,0.0
2,3, 2, 3, 0,17, 0.00,60.00,Wednesday
10,6685063.216748377
22,4368891.063756271
34,4368891.063756271
46,4368891.063756271
513,557270.005027278
1291,1743907.202067026
2,3, 2, 3, 0,18, 0.00,60.00,Wednesday
10,7710451.127093113
22,5514884.4344747625
34,5514884.4344747625
46,5514884.4344747625
513,406581.3668018242
1291,1768099.5083160177
2,3, 2, 3, 0,19, 0.00,60.00,Wednesday
10,8337541.124583165
22,5936377.747743254
34,5936377.747743254
46,5936377.747743254
513,390073.1463230675
1291,1794872.9410166848
2,3, 2, 3, 0,20, 0.00,60.00,Wednesday
10,8117662.634470563
22,5860851.394397255
34,5860851.394397255
46,5860851.394397255
513,236376.18564675126
1291,1801174.9593464884
2,3, 2, 3, 0,21, 0.00,60.00,Wednesday
10,7948422.928023997
22,5788324.826793473
34,5788324.826793473
46,5788324.826793473
513,154285.71428571438
1291,1786552.2918647393
2,3, 2, 3, 0,22, 0.00,60.00,Wednesday
10,7407396.324218483
22,5275040.848512863
34,5275040.848512863
46,5275040.848512863
513,154285.71428571438
1291,1766404.509067295
2,3, 2, 3, 0,23, 0.00,60.00,Wednesday
10,6263898.3632193105
22,4175767.1653783405
34,4175767.1653783405
46,4175767.1653783405
513,154285.71428571438
1291,1732623.1399528985
2,3, 2, 3, 0,24, 0.00,60.00,Wednesday
10,4236807.782218314
22,3228431.3064444675
34,3228431.3064444675
46,3228431.3064444675
513,814919.3720114217
1291,0.0
2,4, 2, 4, 0, 1, 0.00,60.00,Thursday
10,4916519.026779275
22,2498479.0097388276
34,2498479.0097388276
46,2498479.0097388276
513,2227796.1159704095
1291,0.0
2,4, 2, 4, 0, 2, 0.00,60.00,Thursday
10,7127560.815247513
22,2287908.203727021
34,2287908.203727021
46,2287908.203727021
513,2996153.9020725815
1291,1653254.8083778722
2,4, 2, 4, 0, 3, 0.00,60.00,Thursday
10,5709743.865215135
22,2218387.455766968
34,2218387.455766968
46,2218387.455766968
513,3301112.508378128
1291,0.0
2,4, 2, 4, 0, 4, 0.00,60.00,Thursday
10,6051189.715536996
22,2167160.80380385
34,2167160.80380385
46,2167160.80380385
513,3693785.010663108
1291,0.0
2,4, 2, 4, 0, 5, 0.00,60.00,Thursday
10,6538083.288051572
22,2326991.86639299
34,2326991.86639299
46,2326991.86639299
513,4016563.250332027
1291,0.0
2,4, 2, 4, 0, 6, 0.00,60.00,Thursday
10,8330694.417017648
22,2888368.680950925
34,2888368.680950925
46,2888368.680950925
513,3535679.4382224586
1291,1705156.1873508752
2,4, 2, 4, 0, 7, 0.00,60.00,Thursday
10,8315052.663223557
22,3455726.295687276
34,3455726.295687276
46,3455726.295687276
513,3047455.378614408
1291,1796876.0430240706
2,4, 2, 4, 0, 8, 0.00,60.00,Thursday
10,6906269.302432746
22,3804342.957438114
34,3804342.957438114
46,3804342.957438114
513,1251729.4170887684
1291,1836808.5833542552
2,4, 2, 4, 0, 9, 0.00,60.00,Thursday
10,5337222.263284859
22,3331560.1762823085
34,3331560.1762823085
46,3331560.1762823085
513,154285.71428571438
1291,1845485.501114129
2,4, 2, 4, 0,10, 0.00,60.00,Thursday
10,5134584.721887465
22,3145052.4172653225
34,3145052.4172653225
46,3145052.4172653225
513,154285.71428571438
1291,1831230.0869709451
2,4, 2, 4, 0,11, 0.00,60.00,Thursday
10,5164264.034255507
22,3201316.809840188
34,3201316.809840188
46,3201316.809840188
513,154285.71428571438
1291,1804645.0067641232
2,4, 2, 4, 0,12, 0.00,60.00,Thursday
10,5181876.925667987
22,3245056.7517732778
34,3245056.7517732778
46,3245056.7517732778
513,154285.71428571438
1291,1778517.956243512
2,4, 2, 4, 0,13, 0.00,60.00,Thursday
10,5113714.282199847
22,3197289.398662933
34,3197289.398662933
46,3197289.398662933
513,154285.71428571438
1291,1758122.6658857176
2,4, 2, 4, 0,14, 0.00,60.00,Thursday
10,5078730.829266531
22,3143544.016284607
34,3143544.016284607
46,3143544.016284607
513,185749.36871611857
1291,1745420.9409003237
2,4, 2, 4, 0,15, 0.00,60.00,Thursday
10,5237001.31630766
22,3152610.4832543777
34,3152610.4832543777
46,3152610.4832543777
513,346010.5167022679
1291,1734363.8129855327
2,4, 2, 4, 0,16, 0.00,60.00,Thursday
10,3670887.9439957477
22,3436226.8211706067
34,3436226.8211706067
46,3436226.8211706067
513,227699.18365830515
1291,0.0
2,4, 2, 4, 0,17, 0.00,60.00,Thursday
10,6282149.08498575
22,4368891.063756271
34,4368891.063756271
46,4368891.063756271
513,154285.71428571438
1291,1743977.3610459638
2,4, 2, 4, 0,18, 0.00,60.00,Thursday
10,7458301.344045091
22,5514884.4344747625
34,5514884.4344747625
46,5514884.4344747625
513,154285.71428571438
1291,1768245.3777841055
2,4, 2, 4, 0,19, 0.00,60.00,Thursday
10,8102226.32912242
22,5936377.747743254
34,5936377.747743254
46,5936377.747743254
513,154285.71428571438
1291,1795345.577593294
2,4, 2, 4, 0,20, 0.00,60.00,Thursday
10,8950379.400395658
22,5860851.394397255
34,5860851.394397255
46,5860851.394397255
513,1068715.2716685608
1291,1801552.6392497728
2,4, 2, 4, 0,21, 0.00,60.00,Thursday
10,10683998.473213565
22,5788324.826793473
34,5788324.826793473
46,5788324.826793473
513,2889549.8188801594
1291,1786863.7324598632
2,4, 2, 4, 0,22, 0.00,60.00,Thursday
10,11593811.510280019
22,5275040.848512863
34,5275040.848512863
46,5275040.848512863
513,4340125.759424252
1291,1766979.649990292
2,4, 2, 4, 0,23, 0.00,60.00,Thursday
10,12131617.575896407
22,4175767.1653783405
34,4175767.1653783405
46,4175767.1653783405
513,6021779.994989543
1291,1732848.071926166
2,4, 2, 4, 0,24, 0.00,60.00,Thursday
10,11349709.548650954
22,3228431.3064444675
34,3228431.3064444675
46,3228431.3064444675
513,7927821.138444062
1291,0.0
2,5, 2, 5, 0, 1, 0.00,60.00,Friday
10,12460657.33120419
22,2498479.0097388276
34,2498479.0097388276
46,2498479.0097388276
513,9771934.420395326
1291,0.0
2,5, 2, 5, 0, 2, 0.00,60.00,Friday
10,13032890.159875363
22,2287908.203727021
34,2287908.203727021
46,2287908.203727021
513,10554738.055078303
1291,0.0
2,5, 2, 5, 0, 3, 0.00,60.00,Friday
10,14886904.072936151
22,2218387.455766968
34,2218387.455766968
46,2218387.455766968
513,10830345.111426987
1291,1647927.604672156
2,5, 2, 5, 0, 4, 0.00,60.00,Friday
10,13673553.351415625
22,2167160.80380385
34,2167160.80380385
46,2167160.80380385
513,11316148.646541739
1291,0.0
2,5, 2, 5, 0, 5, 0.00,60.00,Friday
10,14165484.899130704
22,2326991.86639299
34,2326991.86639299
46,2326991.86639299
513,11643964.861411162
1291,0.0
2,5, 2, 5, 0, 6, 0.00,60.00,Friday
10,16569136.947007509
22,2888368.680950925
34,2888368.680950925
46,2888368.680950925
513,11774140.22831439
1291,1705137.9272488046
2,5, 2, 5, 0, 7, 0.00,60.00,Friday
10,16834796.569895133
22,3455726.295687276
34,3455726.295687276
46,3455726.295687276
513,11567124.413470054
1291,1796950.9148400007
2,5, 2, 5, 0, 8, 0.00,60.00,Friday
10,14498343.38208919
22,3804342.957438114
34,3804342.957438114
46,3804342.957438114
513,8843847.647754133
1291,1836764.4323453342
2,5, 2, 5, 0, 9, 0.00,60.00,Friday
10,10886729.280000957
22,3331560.1762823085
34,3331560.1762823085
46,3331560.1762823085
513,5703409.01130566
1291,1845869.2208102809
2,5, 2, 5, 0,10, 0.00,60.00,Friday
10,8833775.848746167
22,3145052.4172653225
34,3145052.4172653225
46,3145052.4172653225
513,3853475.0675720647
1291,1831231.8605432992
2,5, 2, 5, 0,11, 0.00,60.00,Friday
10,6743177.920586865
22,3201316.809840188
34,3201316.809840188
46,3201316.809840188
513,1732753.554600901
1291,1805091.052780295
2,5, 2, 5, 0,12, 0.00,60.00,Friday
10,5523549.563032669
22,3245056.7517732778
34,3245056.7517732778
46,3245056.7517732778
513,495736.2467519802
1291,1778740.061141928
2,5, 2, 5, 0,13, 0.00,60.00,Friday
10,5114397.26193832
22,3197289.398662933
34,3197289.398662933
46,3197289.398662933
513,154285.71428571438
1291,1758805.645624191
2,5, 2, 5, 0,14, 0.00,60.00,Friday
10,5047229.654644005
22,3143544.016284607
34,3143544.016284607
46,3143544.016284607
513,154285.71428571438
1291,1745383.420708202
2,5, 2, 5, 0,15, 0.00,60.00,Friday
10,5045494.149650199
22,3152610.4832543777
34,3152610.4832543777
46,3152610.4832543777
513,154285.71428571438
1291,1734581.4487446249
2,5, 2, 5, 0,16, 0.00,60.00,Friday
10,3597474.474623157
22,3436226.8211706067
34,3436226.8211706067
46,3436226.8211706067
513,154285.71428571438
1291,0.0
2,5, 2, 5, 0,17, 0.00,60.00,Friday
10,6281942.687927855
22,4368891.063756271
34,4368891.063756271
46,4368891.063756271
513,154285.71428571438
1291,1743770.9639880687
2,5, 2, 5, 0,18, 0.00,60.00,Friday
10,7458269.611770227
22,5514884.4344747625
34,5514884.4344747625
46,5514884.4344747625
513,154285.71428571438
1291,1768213.6455092416
2,5, 2, 5, 0,19, 0.00,60.00,Friday
10,8102086.582941266
22,5936377.747743254
34,5936377.747743254
46,5936377.747743254
513,154285.71428571438
1291,1795205.8314121393
2,5, 2, 5, 0,20, 0.00,60.00,Friday
10,8874776.772667015
22,5860851.394397255
34,5860851.394397255
46,5860851.394397255
513,993173.1048846594
1291,1801492.1783050324
2,5, 2, 5, 0,21, 0.00,60.00,Friday
10,10690213.375494238
22,5788324.826793473
34,5788324.826793473
46,5788324.826793473
513,2895545.675015476
1291,1787082.7786052194
2,5, 2, 5, 0,22, 0.00,60.00,Friday
10,11801422.479496218
22,5275040.848512863
34,5275040.848512863
46,5275040.848512863
513,4548060.0252594305
1291,1766656.353371315
2,5, 2, 5, 0,23, 0.00,60.00,Friday
10,11831707.118072018
22,4175767.1653783405
34,4175767.1653783405
46,4175767.1653783405
513,6635544.527782435
1291,819173.0813088845
2,5, 2, 5, 0,24, 0.00,60.00,Friday