Program Version,EnergyPlus, Version 22.2.0-c249759bad, YMD=2023.05.28 19:18
1,5,Environment Title[],Latitude[deg],Longitude[deg],Time Zone[],Elevation[m]
2,8,Day of Simulation[],Month[],Day of Month[],DST Indicator[1=yes 0=no],Hour[],StartMinute[],EndMinute[],DayType
3,5,Cumulative Day of Simulation[],Month[],Day of Month[],DST Indicator[1=yes 0=no],DayType  ! When Daily Meters Requested
4,2,Cumulative Days of Simulation[],Month[]  ! When Monthly Meters Requested
5,1,Cumulative Days of Simulation[] ! When Run Period Meters Requested
6,1,Calendar Year of Simulation[] ! When Annual Meters Requested
10,1,Electricity:Facility [J] !Hourly
22,1,Electricity:Building [J] !Hourly
34,1,Electricity:Zone:LIVING_UNIT1 [J] !Hourly
46,1,Electricity:SpaceType:GENERAL [J] !Hourly
513,1,Electricity:HVAC [J] !Hourly
1291,1,Electricity:Plant [J] !Hourly
End of Data Dictionary
1,DALLAS FORT WORTH INTL AP ANN HTG 99.6% CONDNS DB,  32.90, -97.02,  -6.00, 171.00
2,1, 1,21, 0, 1, 0.00,60.00,WinterDesignDay
10,30096914.93957918
22,2519341.8750856025
34,2519341.8750856025
46,2519341.8750856025
513,27387329.163423534
1291,0.0
2,1, 1,21, 0, 2, 0.00,60.00,WinterDesignDay
10,30189276.749219738
22,2300485.626558334
34,2300485.626558334
46,2300485.626558334
513,27698547.22159137
1291,0.0
2,1, 1,21, 0, 3, 0.00,60.00,WinterDesignDay
10,30266020.190124106
22,2226600.0926204654
34,2226600.0926204654
46,2226600.0926204654
513,27849176.1964336
1291,0.0
2,1, 1,21, 0, 4, 0.00,60.00,WinterDesignDay
10,30297601.047703292
22,2171740.4070940726
34,2171740.4070940726
46,2171740.4070940726
513,27935616.73953918
1291,0.0
2,1, 1,21, 0, 5, 0.00,60.00,WinterDesignDay
10,31313440.43549159
22,2335718.210080423
34,2335718.210080423
46,2335718.210080423
513,27886079.250830926
1291,897114.80325369
2,1, 1,21, 0, 6, 0.00,60.00,WinterDesignDay
10,31458330.350929856
22,2902111.397117286
34,2902111.397117286
46,2902111.397117286
513,27569608.584672794
1291,785120.2586463918
2,1, 1,21, 0, 7, 0.00,60.00,WinterDesignDay
10,32547995.992102377
22,3490045.529346395
34,3490045.529346395
46,3490045.529346395
513,27242726.93091379
1291,1800228.585944384
2,1, 1,21, 0, 8, 0.00,60.00,WinterDesignDay
10,32898636.35881223
22,3872409.4070758065
34,3872409.4070758065
46,3872409.4070758065
513,27168675.731920518
1291,1844162.8752642954
2,1, 1,21, 0, 9, 0.00,60.00,WinterDesignDay
10,35071465.63927577
22,3436548.288166884
34,3436548.288166884
46,3436548.288166884
513,27913101.745425913
1291,3715924.7340802597
2,1, 1,21, 0,10, 0.00,60.00,WinterDesignDay
10,33458395.432976328
22,3287629.4627914913
34,3287629.4627914913
46,3287629.4627914913
513,28321170.754329246
1291,1845578.7124901046
2,1, 1,21, 0,11, 0.00,60.00,WinterDesignDay
10,33571913.09518434
22,3359522.254572048
34,3359522.254572048
46,3359522.254572048
513,28389609.69185279
1291,1818764.6453940214
2,1, 1,21, 0,12, 0.00,60.00,WinterDesignDay
10,33616433.8162946
22,3405817.7973429887
34,3405817.7973429887
46,3405817.7973429887
513,28415967.87427356
1291,1790631.6413125724
2,1, 1,21, 0,13, 0.00,60.00,WinterDesignDay
10,33554002.353295438
22,3343416.5845005065
34,3343416.5845005065
46,3343416.5845005065
513,28437443.641544648
1291,1769125.623884798
2,1, 1,21, 0,14, 0.00,60.00,WinterDesignDay
10,33477828.28961964
22,3277253.218523652
34,3277253.218523652
46,3277253.218523652
513,28441328.204720598
1291,1755230.363009905
2,1, 1,21, 0,15, 0.00,60.00,WinterDesignDay
10,32011450.109758213
22,3272159.2094632606
34,3272159.2094632606
46,3272159.2094632606
513,28423382.182965614
1291,311892.2139638611
2,1, 1,21, 0,16, 0.00,60.00,WinterDesignDay
10,33262292.679986667
22,3549357.552769049
34,3549357.552769049
46,3549357.552769049
513,28279887.567678176
1291,1426085.6203726085
2,1, 1,21, 0,17, 0.00,60.00,WinterDesignDay
10,33981073.329218194
22,4479188.816479392
34,4479188.816479392
46,4479188.816479392
513,27734612.922119215
1291,1752276.644721786
2,1, 1,21, 0,18, 0.00,60.00,WinterDesignDay
10,34209824.09539295
22,5624286.233621349
34,5624286.233621349
46,5624286.233621349
513,26788094.323572762
1291,1776557.720698333
2,1, 1,21, 0,19, 0.00,60.00,WinterDesignDay
10,33908462.90122331
22,6045788.3062472865
34,6045788.3062472865
46,6045788.3062472865
513,25842330.537352793
1291,1804126.7681230681
2,1, 1,21, 0,20, 0.00,60.00,WinterDesignDay
10,33552262.79235773
22,5971945.160957614
34,5971945.160957614
46,5971945.160957614
513,25550579.314452823
1291,1810478.221867227
2,1, 1,21, 0,21, 0.00,60.00,WinterDesignDay
10,33356337.753445826
22,5899533.255808762
34,5899533.255808762
46,5899533.255808762
513,25441903.729553312
1291,1795640.6730036796
2,1, 1,21, 0,22, 0.00,60.00,WinterDesignDay
10,32931258.278101865
22,5386254.039457358
34,5386254.039457358
46,5386254.039457358
513,25558762.62399268
1291,1774576.362299214
2,1, 1,21, 0,23, 0.00,60.00,WinterDesignDay
10,32367958.564955913
22,4262786.538241955
34,4262786.538241955
46,4262786.538241955
513,26166533.789689664
1291,1737415.8934219326
2,1, 1,21, 0,24, 0.00,60.00,WinterDesignDay
10,30296540.9783572
22,3276627.552965166
34,3276627.552965166
46,3276627.552965166
513,26826456.321629606
1291,0.0
1,DALLAS FORT WORTH INTL AP ANN CLG .4% CONDNS DB=>MWB,  32.90, -97.02,  -6.00, 171.00
2,1, 8,21, 0, 1, 0.00,60.00,SummerDesignDay
10,5819479.778584665
22,2519341.8750856025
34,2519341.8750856025
46,2519341.8750856025
513,3109894.0024290225
1291,0.0
2,1, 8,21, 0, 2, 0.00,60.00,SummerDesignDay
10,5221089.456820158
22,2300485.626558334
34,2300485.626558334
46,2300485.626558334
513,2730359.9291917863
1291,0.0
2,1, 8,21, 0, 3, 0.00,60.00,SummerDesignDay
10,4883044.3319259435
22,2226600.0926204654
34,2226600.0926204654
46,2226600.0926204654
513,2466200.338235441
1291,0.0
2,1, 8,21, 0, 4, 0.00,60.00,SummerDesignDay
10,4620746.634830727
22,2171740.4070940726
34,2171740.4070940726
46,2171740.4070940726
513,2258762.3266666164
1291,0.0
2,1, 8,21, 0, 5, 0.00,60.00,SummerDesignDay
10,4658144.740075994
22,2335718.210080423
34,2335718.210080423
46,2335718.210080423
513,2127898.358669019
1291,0.0
2,1, 8,21, 0, 6, 0.00,60.00,SummerDesignDay
10,6922627.101693664
22,2902111.397117286
34,2902111.397117286
46,2902111.397117286
513,2144656.868844834
1291,1674368.7252381544
2,1, 8,21, 0, 7, 0.00,60.00,SummerDesignDay
10,6221843.163485447
22,3490045.529346395
34,3490045.529346395
46,3490045.529346395
513,2716802.6882412513
1291,0.0
2,1, 8,21, 0, 8, 0.00,60.00,SummerDesignDay
10,9360216.188565403
22,3872409.4070758065
34,3872409.4070758065
46,3872409.4070758065
513,3728402.0961535256
1291,1746016.3407844643
2,1, 8,21, 0, 9, 0.00,60.00,SummerDesignDay
10,9698212.750021685
22,3436548.288166884
34,3436548.288166884
46,3436548.288166884
513,4501161.971811438
1291,1754611.618440656
2,1, 8,21, 0,10, 0.00,60.00,SummerDesignDay
10,9450166.35389485
22,3287629.4627914913
34,3287629.4627914913
46,3287629.4627914913
513,5319089.772826428
1291,839430.6149114484
2,1, 8,21, 0,11, 0.00,60.00,SummerDesignDay
10,10387800.93437915
22,3359522.254572048
34,3359522.254572048
46,3359522.254572048
513,6121028.530819204
1291,903233.6456224154
2,1, 8,21, 0,12, 0.00,60.00,SummerDesignDay
10,11824294.66259842
22,3405817.7973429887
34,3405817.7973429887
46,3405817.7973429887
513,6692574.089289003
1291,1721886.2726009428
2,1, 8,21, 0,13, 0.00,60.00,SummerDesignDay
10,10234189.58897243
22,3343416.5845005065
34,3343416.5845005065
46,3343416.5845005065
513,6886756.501106439
1291,0.0
2,1, 8,21, 0,14, 0.00,60.00,SummerDesignDay
10,11927479.299227413
22,3277253.218523652
34,3277253.218523652
46,3277253.218523652
513,6943147.704788244
1291,1703061.8725500342
2,1, 8,21, 0,15, 0.00,60.00,SummerDesignDay
10,10251147.824928574
22,3272159.2094632606
34,3272159.2094632606
46,3272159.2094632606
513,6974972.112099832
1291,0.0
2,1, 8,21, 0,16, 0.00,60.00,SummerDesignDay
10,12213749.766780455
22,3549357.552769049
34,3549357.552769049
46,3549357.552769049
513,6965239.768065676
1291,1692190.5067788966
2,1, 8,21, 0,17, 0.00,60.00,SummerDesignDay
10,11416242.694856819
22,4479188.816479392
34,4479188.816479392
46,4479188.816479392
513,6922058.932479625
1291,0.0
2,1, 8,21, 0,18, 0.00,60.00,SummerDesignDay
10,14215345.395876221
22,5624286.233621349
34,5624286.233621349
46,5624286.233621349
513,6857988.104925792
1291,1712185.2398285728
2,1, 8,21, 0,19, 0.00,60.00,SummerDesignDay
10,13596990.016762372
22,6045788.3062472865
34,6045788.3062472865
46,6045788.3062472865
513,6755731.18550914
1291,579253.2355057881
2,1, 8,21, 0,20, 0.00,60.00,SummerDesignDay
10,13980363.634807026
22,5971945.160957614
34,5971945.160957614
46,5971945.160957614
513,6638938.643368987
1291,1150219.7354003564
2,1, 8,21, 0,21, 0.00,60.00,SummerDesignDay
10,14030815.84797617
22,5899533.255808762
34,5899533.255808762
46,5899533.255808762
513,6188688.993076056
1291,1723333.5040112815
2,1, 8,21, 0,22, 0.00,60.00,SummerDesignDay
10,10744878.68148784
22,5386254.039457358
34,5386254.039457358
46,5386254.039457358
513,5146959.389677869
1291,0.0
2,1, 8,21, 0,23, 0.00,60.00,SummerDesignDay
10,10479557.063518502
22,4262786.538241955
34,4262786.538241955
46,4262786.538241955
513,4323423.7566859545
1291,1692124.4249882353
2,1, 8,21, 0,24, 0.00,60.00,SummerDesignDay
10,7123783.389914946
22,3276627.552965166
34,3276627.552965166
46,3276627.552965166
513,3653698.7331873532
1291,0.0
1,ANNUAL,  32.90, -97.02,  -6.00, 171.00
2,1, 2, 1, 0, 1, 0.00,60.00,Monday
10,16663711.824483577
22,2498479.0097388276
34,2498479.0097388276
46,2498479.0097388276
513,13974988.913674712
1291,0.0
2,1, 2, 1, 0, 2, 0.00,60.00,Monday
10,15541665.498123404
22,2287908.203727021
34,2287908.203727021
46,2287908.203727021
513,13063513.393326344
1291,0.0
2,1, 2, 1, 0, 3, 0.00,60.00,Monday
10,16115176.454486404
22,2218387.455766968
34,2218387.455766968
46,2218387.455766968
513,13706545.097649397
1291,0.0
2,1, 2, 1, 0, 4, 0.00,60.00,Monday
10,17284766.025103275
22,2167160.80380385
34,2167160.80380385
46,2167160.80380385
513,14927361.320229385
1291,0.0
2,1, 2, 1, 0, 5, 0.00,60.00,Monday
10,19491034.46896716
22,2326991.86639299
34,2326991.86639299
46,2326991.86639299
513,16969514.431247618
1291,0.0
2,1, 2, 1, 0, 6, 0.00,60.00,Monday
10,22281187.401683442
22,2888368.680950925
34,2888368.680950925
46,2888368.680950925
513,17486205.200565785
1291,1705123.4096733455
2,1, 2, 1, 0, 7, 0.00,60.00,Monday
10,22141459.06699987
22,3455726.295687276
34,3455726.295687276
46,3455726.295687276
513,16873918.117089055
1291,1796819.7083257409
2,1, 2, 1, 0, 8, 0.00,60.00,Monday
10,21504703.713410504
22,3804342.957438114
34,3804342.957438114
46,3804342.957438114
513,15849907.033551782
1291,1837065.3778689974
2,1, 2, 1, 0, 9, 0.00,60.00,Monday
10,19930170.607294284
22,3331560.1762823085
34,3331560.1762823085
46,3331560.1762823085
513,13959211.014025576
1291,2633508.5453836937
2,1, 2, 1, 0,10, 0.00,60.00,Monday
10,18130861.05015474
22,3145052.4172653225
34,3145052.4172653225
46,3145052.4172653225
513,12100859.627464164
1291,2880932.502059776
2,1, 2, 1, 0,11, 0.00,60.00,Monday
10,16023384.269693363
22,3201316.809840188
34,3201316.809840188
46,3201316.809840188
513,11012656.527699016
1291,1805394.4287886778
2,1, 2, 1, 0,12, 0.00,60.00,Monday
10,15221849.805721367
22,3245056.7517732778
34,3245056.7517732778
46,3245056.7517732778
513,10193785.61474285
1291,1778990.9358397555
2,1, 2, 1, 0,13, 0.00,60.00,Monday
10,13169661.826289453
22,3197289.398662933
34,3197289.398662933
46,3197289.398662933
513,8543712.150866821
1291,1424643.773394217
2,1, 2, 1, 0,14, 0.00,60.00,Monday
10,9966917.442291204
22,3143544.016284607
34,3143544.016284607
46,3143544.016284607
513,6487658.549380783
1291,331698.37326033134
2,1, 2, 1, 0,15, 0.00,60.00,Monday
10,11046297.095580157
22,3152610.4832543777
34,3152610.4832543777
46,3152610.4832543777
513,6154817.619768048
1291,1734852.4891922493
2,1, 2, 1, 0,16, 0.00,60.00,Monday
10,10788917.745768279
22,3436226.8211706067
34,3436226.8211706067
46,3436226.8211706067
513,5615814.0952493865
1291,1729914.8901814504
2,1, 2, 1, 0,17, 0.00,60.00,Monday
10,10836964.144061547
22,4368891.063756271
34,4368891.063756271
46,4368891.063756271
513,6453078.134407474
1291,0.0
2,1, 2, 1, 0,18, 0.00,60.00,Monday
10,14998674.686742384
22,5514884.4344747625
34,5514884.4344747625
46,5514884.4344747625
513,7694032.70292105
1291,1768871.7318460627
2,1, 2, 1, 0,19, 0.00,60.00,Monday
10,16129140.639913209
22,5936377.747743254
34,5936377.747743254
46,5936377.747743254
513,8180830.792980473
1291,1795714.8096893218
2,1, 2, 1, 0,20, 0.00,60.00,Monday
10,16636547.110422902
22,5860851.394397255
34,5860851.394397255
46,5860851.394397255
513,8754824.775237098
1291,1801610.8457084775
2,1, 2, 1, 0,21, 0.00,60.00,Monday
10,17720338.99902945
22,5788324.826793473
34,5788324.826793473
46,5788324.826793473
513,9925781.690008882
1291,1786972.3871470266
2,1, 2, 1, 0,22, 0.00,60.00,Monday
10,18290156.37734974
22,5275040.848512863
34,5275040.848512863
46,5275040.848512863
513,11036842.992027752
1291,1766607.284456513
2,1, 2, 1, 0,23, 0.00,60.00,Monday
10,18540546.583294395
22,4175767.1653783405
34,4175767.1653783405
46,4175767.1653783405
513,12430677.196954414
1291,1732879.8773592813
2,1, 2, 1, 0,24, 0.00,60.00,Monday
10,17826797.78532463
22,3228431.3064444675
34,3228431.3064444675
46,3228431.3064444675
513,14404909.375117738
1291,0.0
2,2, 2, 2, 0, 1, 0.00,60.00,Tuesday
10,21393467.615963385
22,2498479.0097388276
34,2498479.0097388276
46,2498479.0097388276
513,17038066.52579219
1291,1666678.1793623292
2,2, 2, 2, 0, 2, 0.00,60.00,Tuesday
10,21671734.710771535
22,2287908.203727021
34,2287908.203727021
46,2287908.203727021
513,19193582.605974477
1291,0.0
2,2, 2, 2, 0, 3, 0.00,60.00,Tuesday
10,23262387.82239805
22,2218387.455766968
34,2218387.455766968
46,2218387.455766968
513,20853756.46556104
1291,0.0
2,2, 2, 2, 0, 4, 0.00,60.00,Tuesday
10,23734752.542107888
22,2167160.80380385
34,2167160.80380385
46,2167160.80380385
513,21377347.837233998
1291,0.0
2,2, 2, 2, 0, 5, 0.00,60.00,Tuesday
10,25030615.079722974
22,2326991.86639299
34,2326991.86639299
46,2326991.86639299
513,22509095.042003427
1291,0.0
2,2, 2, 2, 0, 6, 0.00,60.00,Tuesday
10,27642573.239422847
22,2888368.680950925
34,2888368.680950925
46,2888368.680950925
513,22847580.274194732
1291,1705134.1737837957
2,2, 2, 2, 0, 7, 0.00,60.00,Tuesday
10,26870019.251659703
22,3455726.295687276
34,3455726.295687276
46,3455726.295687276
513,21602048.351306297
1291,1797249.65876833
2,2, 2, 2, 0, 8, 0.00,60.00,Tuesday
10,27581335.411823176
22,3804342.957438114
34,3804342.957438114
46,3804342.957438114
513,21926896.452384297
1291,1836707.6574491542
2,2, 2, 2, 0, 9, 0.00,60.00,Tuesday
10,25109813.324913517
22,3331560.1762823085
34,3331560.1762823085
46,3331560.1762823085
513,19926398.382140834
1291,1845963.8948876662
2,2, 2, 2, 0,10, 0.00,60.00,Tuesday
10,24143698.44538115
22,3145052.4172653225
34,3145052.4172653225
46,3145052.4172653225
513,17331395.6048871
1291,3663233.9198632417
2,2, 2, 2, 0,11, 0.00,60.00,Tuesday
10,20883690.641864635
22,3201316.809840188
34,3201316.809840188
46,3201316.809840188
513,15873242.644242946
1291,1805114.684416018
2,2, 2, 2, 0,12, 0.00,60.00,Tuesday
10,19643911.89442979
22,3245056.7517732778
34,3245056.7517732778
46,3245056.7517732778
513,14615679.676900353
1291,1779158.962390679
2,2, 2, 2, 0,13, 0.00,60.00,Tuesday
10,14876789.146970034
22,3197289.398662933
34,3197289.398662933
46,3197289.398662933
513,11675483.24494162
1291,0.0
2,2, 2, 2, 0,14, 0.00,60.00,Tuesday
10,13609510.176263105
22,3143544.016284607
34,3143544.016284607
46,3143544.016284607
513,8716105.171528528
1291,1745844.4850844888
2,2, 2, 2, 0,15, 0.00,60.00,Tuesday
10,10691428.925471377
22,3152610.4832543777
34,3152610.4832543777
46,3152610.4832543777
513,5799964.909110406
1291,1734837.0297411098
2,2, 2, 2, 0,16, 0.00,60.00,Tuesday
10,9256810.295629032
22,3436226.8211706067
34,3436226.8211706067
46,3436226.8211706067
513,4083999.1687674345
1291,1729622.3665241555
2,2, 2, 2, 0,17, 0.00,60.00,Tuesday
10,7785060.22968662
22,4368891.063756271
34,4368891.063756271
46,4368891.063756271
513,3401174.2200325476
1291,0.0
2,2, 2, 2, 0,18, 0.00,60.00,Tuesday
10,11467216.042555392
22,5514884.4344747625
34,5514884.4344747625
46,5514884.4344747625
513,4162798.7845505523
1291,1768647.0060295705
2,2, 2, 2, 0,19, 0.00,60.00,Tuesday
10,13990661.161991455
22,5936377.747743254
34,5936377.747743254
46,5936377.747743254
513,6042628.062686039
1291,1795438.0620620048
2,2, 2, 2, 0,20, 0.00,60.00,Tuesday
10,14620276.606201492
22,5860851.394397255
34,5860851.394397255
46,5860851.394397255
513,6738258.378596035
1291,1801906.7381281336
2,2, 2, 2, 0,21, 0.00,60.00,Tuesday
10,15907399.851449952
22,5788324.826793473
34,5788324.826793473
46,5788324.826793473
513,8112566.879021089
1291,1787248.0505553219
2,2, 2, 2, 0,22, 0.00,60.00,Tuesday
10,18342156.93595583
22,5275040.848512863
34,5275040.848512863
46,5275040.848512863
513,11088734.2412066
1291,1766716.5938837575
2,2, 2, 2, 0,23, 0.00,60.00,Tuesday
10,20829693.13533534
22,4175767.1653783405
34,4175767.1653783405
46,4175767.1653783405
513,14719985.325021002
1291,1732718.3013336402
2,2, 2, 2, 0,24, 0.00,60.00,Tuesday
10,20230717.583858542
22,3228431.3064444675
34,3228431.3064444675
46,3228431.3064444675
513,16808829.173651654
1291,0.0
2,3, 2, 3, 0, 1, 0.00,60.00,Wednesday
10,22589883.943242487
22,2498479.0097388276
34,2498479.0097388276
46,2498479.0097388276
513,18234474.23365768
1291,1666686.7987759428
2,3, 2, 3, 0, 2, 0.00,60.00,Wednesday
10,21893291.939987663
22,2287908.203727021
34,2287908.203727021
46,2287908.203727021
513,19415139.835190605
1291,0.0
2,3, 2, 3, 0, 3, 0.00,60.00,Wednesday
10,22484980.12219375
22,2218387.455766968
34,2218387.455766968
46,2218387.455766968
513,20076348.765356746
1291,0.0
2,3, 2, 3, 0, 4, 0.00,60.00,Wednesday
10,22567433.73648424
22,2167160.80380385
34,2167160.80380385
46,2167160.80380385
513,20210029.03161035
1291,0.0
2,3, 2, 3, 0, 5, 0.00,60.00,Wednesday
10,22385606.974346656
22,2326991.86639299
34,2326991.86639299
46,2326991.86639299
513,19864086.936627116
1291,0.0
2,3, 2, 3, 0, 6, 0.00,60.00,Wednesday
10,24848262.079140477
22,2888368.680950925
34,2888368.680950925
46,2888368.680950925
513,20053516.428219315
1291,1704886.859476845
2,3, 2, 3, 0, 7, 0.00,60.00,Wednesday
10,25614658.35076012
22,3455726.295687276
34,3455726.295687276
46,3455726.295687276
513,20346852.844427604
1291,1797084.2647474422
2,3, 2, 3, 0, 8, 0.00,60.00,Wednesday
10,25356969.950084955
22,3804342.957438114
34,3804342.957438114
46,3804342.957438114
513,19702103.147432115
1291,1837135.5006631182
2,3, 2, 3, 0, 9, 0.00,60.00,Wednesday
10,21961313.8297482
22,3331560.1762823085
34,3331560.1762823085
46,3331560.1762823085
513,16778159.380399354
1291,1845703.4014638325
2,3, 2, 3, 0,10, 0.00,60.00,Wednesday
10,18887832.36130223
22,3145052.4172653225
34,3145052.4172653225
46,3145052.4172653225
513,12999199.90682408
1291,2739563.533847343
2,3, 2, 3, 0,11, 0.00,60.00,Wednesday
10,15957929.990204562
22,3201316.809840188
34,3201316.809840188
46,3201316.809840188
513,10037723.856335679
1291,2714872.8206632137
2,3, 2, 3, 0,12, 0.00,60.00,Wednesday
10,11601009.269344233
22,3245056.7517732778
34,3245056.7517732778
46,3245056.7517732778
513,7343640.999556739
1291,1008295.0146487348
2,3, 2, 3, 0,13, 0.00,60.00,Wednesday
10,8682255.862989614
22,3197289.398662933
34,3197289.398662933
46,3197289.398662933
513,4719224.505110027
1291,761725.4558511714
2,3, 2, 3, 0,14, 0.00,60.00,Wednesday
10,7202489.093193896
22,3143544.016284607
34,3143544.016284607
46,3143544.016284607
513,2308820.467117246
1291,1746108.106426562
2,3, 2, 3, 0,15, 0.00,60.00,Wednesday
10,5741081.068976577
22,3152610.4832543777
34,3152610.4832543777
46,3152610.4832543777
513,849297.6166135715
1291,1735156.4657431461
2,3, 2, 3, 0,16, 0.00,60.00,Wednesday
10,3726725.8829490375
22,3436226.8211706067
34,3436226.8211706067
46,3436226.8211706067
513,283537.12261159456
1291,0.0
2,3, 2, 3, 0,17, 0.00,60.00,Wednesday
10,6282824.115373237
22,4368891.063756271
34,4368891.063756271
46,4368891.063756271
513,154285.71428571438
1291,1744652.3914334504
2,3, 2, 3, 0,18, 0.00,60.00,Wednesday
10,7681400.94922255
22,5514884.4344747625
34,5514884.4344747625
46,5514884.4344747625
513,377102.8312778408
1291,1768527.8659694376
2,3, 2, 3, 0,19, 0.00,60.00,Wednesday
10,9843474.390721392
22,5936377.747743254
34,5936377.747743254
46,5936377.747743254
513,1895171.8389324527
1291,1795707.5145455261
2,3, 2, 3, 0,20, 0.00,60.00,Wednesday
10,11334091.090349542
22,5860851.394397255
34,5860851.394397255
46,5860851.394397255
513,3452232.264892822
1291,1801747.3359793965
2,3, 2, 3, 0,21, 0.00,60.00,Wednesday
10,12442544.604236633
22,5788324.826793473
34,5788324.826793473
46,5788324.826793473
513,4648138.866374172
1291,1786820.8159889178
2,3, 2, 3, 0,22, 0.00,60.00,Wednesday
10,12945454.84452007
22,5275040.848512863
34,5275040.848512863
46,5275040.848512863
513,5691739.16186156
1291,1767009.5817930372
2,3, 2, 3, 0,23, 0.00,60.00,Wednesday
10,13335426.50768437
22,4175767.1653783405
34,4175767.1653783405
46,4175767.1653783405
513,7225954.009549021
1291,1732482.9891546522
2,3, 2, 3, 0,24, 0.00,60.00,Wednesday
10,12132496.519752491
22,3228431.3064444675
34,3228431.3064444675
46,3228431.3064444675
513,8710608.109545602
1291,0.0
2,4, 2, 4, 0, 1, 0.00,60.00,Thursday
10,12912064.651849668
22,2498479.0097388276
34,2498479.0097388276
46,2498479.0097388276
513,10223341.741040803
1291,0.0
2,4, 2, 4, 0, 2, 0.00,60.00,Thursday
10,15114671.605759256
22,2287908.203727021
34,2287908.203727021
46,2287908.203727021
513,10983379.598086707
1291,1653139.9028754919
2,4, 2, 4, 0, 3, 0.00,60.00,Thursday
10,13395891.567077905
22,2218387.455766968
34,2218387.455766968
46,2218387.455766968
513,10987260.210240899
1291,0.0
2,4, 2, 4, 0, 4, 0.00,60.00,Thursday
10,14892013.268387916
22,2167160.80380385
34,2167160.80380385
46,2167160.80380385
513,12534608.563514028
1291,0.0
2,4, 2, 4, 0, 5, 0.00,60.00,Thursday
10,16097570.69421979
22,2326991.86639299
34,2326991.86639299
46,2326991.86639299
513,13576050.65650025
1291,0.0
2,4, 2, 4, 0, 6, 0.00,60.00,Thursday
10,18951890.436986614
22,2888368.680950925
34,2888368.680950925
46,2888368.680950925
513,14157165.801083103
1291,1704865.8444591928
2,4, 2, 4, 0, 7, 0.00,60.00,Thursday
10,19651152.624797605
22,3455726.295687276
34,3455726.295687276
46,3455726.295687276
513,14383194.3867939
1291,1797236.9964186281
2,4, 2, 4, 0, 8, 0.00,60.00,Thursday
10,19366029.036614597
22,3804342.957438114
34,3804342.957438114
46,3804342.957438114
513,13711370.767903022
1291,1836926.9667218542
2,4, 2, 4, 0, 9, 0.00,60.00,Thursday
10,18318582.37905215
22,3331560.1762823085
34,3331560.1762823085
46,3331560.1762823085
513,13135242.027157178
1291,1845889.3040099558
2,4, 2, 4, 0,10, 0.00,60.00,Thursday
10,17480550.548818212
22,3145052.4172653225
34,3145052.4172653225
46,3145052.4172653225
513,12499864.762970416
1291,1831616.8652169933
2,4, 2, 4, 0,11, 0.00,60.00,Thursday
10,17009346.830517534
22,3201316.809840188
34,3201316.809840188
46,3201316.809840188
513,11180248.076281909
1291,2623765.441029955
2,4, 2, 4, 0,12, 0.00,60.00,Thursday
10,14927259.857151896
22,3245056.7517732778
34,3245056.7517732778
46,3245056.7517732778
513,10706140.803262418
1291,972045.7987507199
2,4, 2, 4, 0,13, 0.00,60.00,Thursday
10,15471343.35463378
22,3197289.398662933
34,3197289.398662933
46,3197289.398662933
513,10510905.63553476
1291,1759131.8170706052
2,4, 2, 4, 0,14, 0.00,60.00,Thursday
10,14469122.394267717
22,3143544.016284607
34,3143544.016284607
46,3143544.016284607
513,9575589.631211787
1291,1745972.2434058422
2,4, 2, 4, 0,15, 0.00,60.00,Thursday
10,13857887.690384723
22,3152610.4832543777
34,3152610.4832543777
46,3152610.4832543777
513,8966525.521971457
1291,1734735.1817934068
2,4, 2, 4, 0,16, 0.00,60.00,Thursday
10,12396378.62912419
22,3436226.8211706067
34,3436226.8211706067
46,3436226.8211706067
513,8953189.868786745
1291,0.0
2,4, 2, 4, 0,17, 0.00,60.00,Thursday
10,14791630.130070778
22,4368891.063756271
34,4368891.063756271
46,4368891.063756271
513,8663279.934292436
1291,1744464.1861242722
2,4, 2, 4, 0,18, 0.00,60.00,Thursday
10,15433078.897789521
22,5514884.4344747625
34,5514884.4344747625
46,5514884.4344747625
513,8128409.581695713
1291,1768899.0641185385
2,4, 2, 4, 0,19, 0.00,60.00,Thursday
10,16178207.922673991
22,5936377.747743254
34,5936377.747743254
46,5936377.747743254
513,8230022.397934549
1291,1795590.487496029
2,4, 2, 4, 0,20, 0.00,60.00,Thursday
10,16457235.190547647
22,5860851.394397255
34,5860851.394397255
46,5860851.394397255
513,8575227.024550507
1291,1801896.676519817
2,4, 2, 4, 0,21, 0.00,60.00,Thursday
10,16547544.81450563
22,5788324.826793473
34,5788324.826793473
46,5788324.826793473
513,8752737.582952099
1291,1787222.3096799883
2,4, 2, 4, 0,22, 0.00,60.00,Thursday
10,16375815.517121006
22,5275040.848512863
34,5275040.848512863
46,5275040.848512863
513,9122230.553307336
1291,1766878.8629482007
2,4, 2, 4, 0,23, 0.00,60.00,Thursday
10,16308206.997369222
22,4175767.1653783405
34,4175767.1653783405
46,4175767.1653783405
513,10198403.87182071
1291,1732813.6165678152
2,4, 2, 4, 0,24, 0.00,60.00,Thursday
10,14982682.299822694
22,3228431.3064444675
34,3228431.3064444675
46,3228431.3064444675
513,11560793.8896158
1291,0.0
2,5, 2, 5, 0, 1, 0.00,60.00,Friday
10,15416832.716954993
22,2498479.0097388276
34,2498479.0097388276
46,2498479.0097388276
513,12728109.806146128
1291,0.0
2,5, 2, 5, 0, 2, 0.00,60.00,Friday
10,17542300.055924863
22,2287908.203727021
34,2287908.203727021
46,2287908.203727021
513,13410844.12280537
1291,1653303.8283224332
2,5, 2, 5, 0, 3, 0.00,60.00,Friday
10,16259256.618316036
22,2218387.455766968
34,2218387.455766968
46,2218387.455766968
513,13850625.26147903
1291,0.0
2,5, 2, 5, 0, 4, 0.00,60.00,Friday
10,15769893.752631903
22,2167160.80380385
34,2167160.80380385
46,2167160.80380385
513,13412489.047758015
1291,0.0
2,5, 2, 5, 0, 5, 0.00,60.00,Friday
10,15593861.040066933
22,2326991.86639299
34,2326991.86639299
46,2326991.86639299
513,13072341.002347391
1291,0.0
2,5, 2, 5, 0, 6, 0.00,60.00,Friday
10,17597827.874169484
22,2888368.680950925
34,2888368.680950925
46,2888368.680950925
513,12802827.743271422
1291,1705141.3394537466
2,5, 2, 5, 0, 7, 0.00,60.00,Friday
10,17861702.87974013
22,3455726.295687276
34,3455726.295687276
46,3455726.295687276
513,12594139.430142721
1291,1796842.2080123338
2,5, 2, 5, 0, 8, 0.00,60.00,Friday
10,18562753.703915894
22,3804342.957438114
34,3804342.957438114
46,3804342.957438114
513,12908395.731673881
1291,1836626.6702522924
2,5, 2, 5, 0, 9, 0.00,60.00,Friday
10,18279076.182318635
22,3331560.1762823085
34,3331560.1762823085
46,3331560.1762823085
513,13096130.327084994
1291,1845494.8073486257
2,5, 2, 5, 0,10, 0.00,60.00,Friday
10,17756147.397314154
22,3145052.4172653225
34,3145052.4172653225
46,3145052.4172653225
513,12775601.515017442
1291,1831476.9616659079
2,5, 2, 5, 0,11, 0.00,60.00,Friday
10,17139003.819734428
22,3201316.809840188
34,3201316.809840188
46,3201316.809840188
513,12128538.074335672
1291,1805132.432193083
2,5, 2, 5, 0,12, 0.00,60.00,Friday
10,15232797.6631859
22,3245056.7517732778
34,3245056.7517732778
46,3245056.7517732778
513,10204889.498682309
1291,1778834.9093648281
2,5, 2, 5, 0,13, 0.00,60.00,Friday
10,14069470.507877428
22,3197289.398662933
34,3197289.398662933
46,3197289.398662933
513,9109365.147676349
1291,1758799.458172662
2,5, 2, 5, 0,14, 0.00,60.00,Friday
10,12846941.129105564
22,3143544.016284607
34,3143544.016284607
46,3143544.016284607
513,7953372.789561868
1291,1746007.819893607
2,5, 2, 5, 0,15, 0.00,60.00,Friday
10,11692149.208649369
22,3152610.4832543777
34,3152610.4832543777
46,3152610.4832543777
513,6800443.358467942
1291,1735078.8635615676
2,5, 2, 5, 0,16, 0.00,60.00,Friday
10,9925899.55193249
22,3436226.8211706067
34,3436226.8211706067
46,3436226.8211706067
513,6482710.791595047
1291,0.0
2,5, 2, 5, 0,17, 0.00,60.00,Friday
10,12262253.183242623
22,4368891.063756271
34,4368891.063756271
46,4368891.063756271
513,6133725.87973804
1291,1744641.2938505125
2,5, 2, 5, 0,18, 0.00,60.00,Friday
10,13169375.26111381
22,5514884.4344747625
34,5514884.4344747625
46,5514884.4344747625
513,5864885.468448451
1291,1768719.5406900884
2,5, 2, 5, 0,19, 0.00,60.00,Friday
10,13904007.612403201
22,5936377.747743254
34,5936377.747743254
46,5936377.747743254
513,5956180.690276127
1291,1795231.8848836615
2,5, 2, 5, 0,20, 0.00,60.00,Friday
10,14148383.939063996
22,5860851.394397255
34,5860851.394397255
46,5860851.394397255
513,6266695.666890366
1291,1801576.7826963044
2,5, 2, 5, 0,21, 0.00,60.00,Friday
10,14412396.638845704
22,5788324.826793473
34,5788324.826793473
46,5788324.826793473
513,6617711.877911324
1291,1787099.8390608358
2,5, 2, 5, 0,22, 0.00,60.00,Friday
10,14584379.473799463
22,5275040.848512863
34,5275040.848512863
46,5275040.848512863
513,7330984.9400828015
1291,1766688.4328511886
2,5, 2, 5, 0,23, 0.00,60.00,Friday
10,14604139.115220286
22,4175767.1653783405
34,4175767.1653783405
46,4175767.1653783405
513,8494595.52361976
1291,1732554.0826198286