Program Version,EnergyPlus, Version 22.2.0-c249759bad, YMD=2023.05.28 19:18
1,5,Environment Title[],Latitude[deg],Longitude[deg],Time Zone[],Elevation[m]
2,8,Day of Simulation[],Month[],Day of Month[],DST Indicator[1=yes 0=no],Hour[],StartMinute[],EndMinute[],DayType
3,5,Cumulative Day of Simulation[],Month[],Day of Month[],DST Indicator[1=yes 0=no],DayType  ! When Daily Report Variables Requested
4,2,Cumulative Days of Simulation[],Month[]  ! When Monthly Report Variables Requested
5,1,Cumulative Days of Simulation[] ! When Run Period Report Variables Requested
6,1,Calendar Year of Simulation[] ! When Annual Report Variables Requested
7,1,Environment,Site Outdoor Air Drybulb Temperature [C] !Hourly
684,1,LIVING_UNIT1,Zone Air Temperature [C] !Hourly
747,1,ATTIC_UNIT1,Zone Air Temperature [C] !Hourly
10,1,Electricity:Facility [J] !Hourly
22,1,Electricity:Building [J] !Hourly
34,1,Electricity:Zone:LIVING_UNIT1 [J] !Hourly
46,1,Electricity:SpaceType:GENERAL [J] !Hourly
513,1,Electricity:HVAC [J] !Hourly
1291,1,Electricity:Plant [J] !Hourly
End of Data Dictionary
1,DALLAS FORT WORTH INTL AP ANN HTG 99.6% CONDNS DB,  32.90, -97.02,  -6.00, 171.00
2,1, 1,21, 0, 1, 0.00,60.00,WinterDesignDay
7,-6.5
684,22.22004543775928
747,-4.3074481862192835
10,30096914.93957918
22,2519341.8750856025
34,2519341.8750856025
46,2519341.8750856025
513,27387329.163423534
1291,0.0
2,1, 1,21, 0, 2, 0.00,60.00,WinterDesignDay
7,-6.5
684,22.22005368765632
747,-4.3078137231009945
10,30189276.749219738
22,2300485.626558334
34,2300485.626558334
46,2300485.626558334
513,27698547.22159137
1291,0.0
2,1, 1,21, 0, 3, 0.00,60.00,WinterDesignDay
7,-6.5
684,22.220057746526596
747,-4.308216373786341
10,30266020.190124106
22,2226600.0926204654
34,2226600.0926204654
46,2226600.0926204654
513,27849176.1964336
1291,0.0
2,1, 1,21, 0, 4, 0.00,60.00,WinterDesignDay
7,-6.5
684,22.220059416073365
747,-4.308584968113858
10,30297601.047703292
22,2171740.4070940726
34,2171740.4070940726
46,2171740.4070940726
513,27935616.73953918
1291,0.0
2,1, 1,21, 0, 5, 0.00,60.00,WinterDesignDay
7,-6.5
684,22.220061799987125
747,-4.3088668850113905
10,31313440.43549159
22,2335718.210080423
34,2335718.210080423
46,2335718.210080423
513,27886079.250830926
1291,897114.80325369
2,1, 1,21, 0, 6, 0.00,60.00,WinterDesignDay
7,-6.5
684,22.2200643367126
747,-4.309093895487335
10,31458330.350929856
22,2902111.397117286
34,2902111.397117286
46,2902111.397117286
513,27569608.584672794
1291,785120.2586463918
2,1, 1,21, 0, 7, 0.00,60.00,WinterDesignDay
7,-6.5
684,22.22005997093766
747,-4.309163625765773
10,32547995.992102377
22,3490045.529346395
34,3490045.529346395
46,3490045.529346395
513,27242726.93091379
1291,1800228.585944384
2,1, 1,21, 0, 8, 0.00,60.00,WinterDesignDay
7,-6.5
684,22.220052546645146
747,-4.309087617124203
10,32898636.35881223
22,3872409.4070758065
34,3872409.4070758065
46,3872409.4070758065
513,27168675.731920518
1291,1844162.8752642954
2,1, 1,21, 0, 9, 0.00,60.00,WinterDesignDay
7,-6.5
684,22.220041284355105
747,-4.309091353090476
10,35071465.63927577
22,3436548.288166884
34,3436548.288166884
46,3436548.288166884
513,27913101.745425913
1291,3715924.7340802597
2,1, 1,21, 0,10, 0.00,60.00,WinterDesignDay
7,-6.5
684,22.220051981161404
747,-4.309300700107632
10,33458395.432976328
22,3287629.4627914913
34,3287629.4627914913
46,3287629.4627914913
513,28321170.754329246
1291,1845578.7124901046
2,1, 1,21, 0,11, 0.00,60.00,WinterDesignDay
7,-6.5
684,22.22005903530096
747,-4.309523303829853
10,33571913.09518434
22,3359522.254572048
34,3359522.254572048
46,3359522.254572048
513,28389609.69185279
1291,1818764.6453940214
2,1, 1,21, 0,12, 0.00,60.00,WinterDesignDay
7,-6.5
684,22.220059445496137
747,-4.309690716005048
10,33616433.8162946
22,3405817.7973429887
34,3405817.7973429887
46,3405817.7973429887
513,28415967.87427356
1291,1790631.6413125724
2,1, 1,21, 0,13, 0.00,60.00,WinterDesignDay
7,-6.5
684,22.22005944485561
747,-4.309806214125336
10,33554002.353295438
22,3343416.5845005065
34,3343416.5845005065
46,3343416.5845005065
513,28437443.641544648
1291,1769125.623884798
2,1, 1,21, 0,14, 0.00,60.00,WinterDesignDay
7,-6.5
684,22.220060105186487
747,-4.309898693914854
10,33477828.28961964
22,3277253.218523652
34,3277253.218523652
46,3277253.218523652
513,28441328.204720598
1291,1755230.363009905
2,1, 1,21, 0,15, 0.00,60.00,WinterDesignDay
7,-6.5
684,22.220060540837554
747,-4.30998421159076
10,32011450.109758213
22,3272159.2094632606
34,3272159.2094632606
46,3272159.2094632606
513,28423382.182965614
1291,311892.2139638611
2,1, 1,21, 0,16, 0.00,60.00,WinterDesignDay
7,-6.5
684,22.22006169075873
747,-4.310031516250244
10,33262292.679986667
22,3549357.552769049
34,3549357.552769049
46,3549357.552769049
513,28279887.567678176
1291,1426085.6203726085
2,1, 1,21, 0,17, 0.00,60.00,WinterDesignDay
7,-6.5
684,22.220063580450397
747,-4.309952284387672
10,33981073.329218194
22,4479188.816479392
34,4479188.816479392
46,4479188.816479392
513,27734612.922119215
1291,1752276.644721786
2,1, 1,21, 0,18, 0.00,60.00,WinterDesignDay
7,-6.5
684,22.220059462404404
747,-4.3095772336795735
10,34209824.09539295
22,5624286.233621349
34,5624286.233621349
46,5624286.233621349
513,26788094.323572762
1291,1776557.720698333
2,1, 1,21, 0,19, 0.00,60.00,WinterDesignDay
7,-6.5
684,22.220051555290596
747,-4.308887272467818
10,33908462.90122331
22,6045788.3062472865
34,6045788.3062472865
46,6045788.3062472865
513,25842330.537352793
1291,1804126.7681230681
2,1, 1,21, 0,20, 0.00,60.00,WinterDesignDay
7,-6.5
684,22.22003946742102
747,-4.308228764320421
10,33552262.79235773
22,5971945.160957614
34,5971945.160957614
46,5971945.160957614
513,25550579.314452823
1291,1810478.221867227
2,1, 1,21, 0,21, 0.00,60.00,WinterDesignDay
7,-6.5
684,22.220037349979197
747,-4.307800080838205
10,33356337.753445826
22,5899533.255808762
34,5899533.255808762
46,5899533.255808762
513,25441903.729553312
1291,1795640.6730036796
2,1, 1,21, 0,22, 0.00,60.00,WinterDesignDay
7,-6.5
684,22.220034246865467
747,-4.307457397811864
10,32931258.278101865
22,5386254.039457358
34,5386254.039457358
46,5386254.039457358
513,25558762.62399268
1291,1774576.362299214
2,1, 1,21, 0,23, 0.00,60.00,WinterDesignDay
7,-6.5
684,22.220030669811553
747,-4.307232811241424
10,32367958.564955913
22,4262786.538241955
34,4262786.538241955
46,4262786.538241955
513,26166533.789689664
1291,1737415.8934219326
2,1, 1,21, 0,24, 0.00,60.00,WinterDesignDay
7,-6.5
684,22.220037293078807
747,-4.307232668304536
10,30296540.9783572
22,3276627.552965166
34,3276627.552965166
46,3276627.552965166
513,26826456.321629606
1291,0.0
1,DALLAS FORT WORTH INTL AP ANN CLG .4% CONDNS DB=>MWB,  32.90, -97.02,  -6.00, 171.00
2,1, 8,21, 0, 1, 0.00,60.00,SummerDesignDay
7,28.595
684,23.888405318431666
747,27.758151766511478
10,5819479.778584665
22,2519341.8750856025
34,2519341.8750856025
46,2519341.8750856025
513,3109894.0024290225
1291,0.0
2,1, 8,21, 0, 2, 0.00,60.00,SummerDesignDay
7,28.063333333333333
684,23.888541029388232
747,27.25024319563931
10,5221089.456820158
22,2300485.626558334
34,2300485.626558334
46,2300485.626558334
513,2730359.9291917863
1291,0.0
2,1, 8,21, 0, 3, 0.00,60.00,SummerDesignDay
7,27.6875
684,23.888614165750358
747,26.883331990291612
10,4883044.3319259435
22,2226600.0926204654
34,2226600.0926204654
46,2226600.0926204654
513,2466200.338235441
1291,0.0
2,1, 8,21, 0, 4, 0.00,60.00,SummerDesignDay
7,27.357499999999998
684,23.88856455723553
747,26.570953164642745
10,4620746.634830727
22,2171740.4070940726
34,2171740.4070940726
46,2171740.4070940726
513,2258762.3266666164
1291,0.0
2,1, 8,21, 0, 5, 0.00,60.00,SummerDesignDay
7,27.091666666666665
684,23.88863449107029
747,26.309486070651246
10,4658144.740075994
22,2335718.210080423
34,2335718.210080423
46,2335718.210080423
513,2127898.358669019
1291,0.0
2,1, 8,21, 0, 6, 0.00,60.00,SummerDesignDay
7,27.128333333333334
684,23.88903224794628
747,26.284737794029173
10,6922627.101693664
22,2902111.397117286
34,2902111.397117286
46,2902111.397117286
513,2144656.868844834
1291,1674368.7252381544
2,1, 8,21, 0, 7, 0.00,60.00,SummerDesignDay
7,27.66916666666667
684,23.889434044206592
747,26.854287096594277
10,6221843.163485447
22,3490045.529346395
34,3490045.529346395
46,3490045.529346395
513,2716802.6882412513
1291,0.0
2,1, 8,21, 0, 8, 0.00,60.00,SummerDesignDay
7,29.080833333333334
684,23.888955909781714
747,28.684743122248904
10,9360216.188565403
22,3872409.4070758065
34,3872409.4070758065
46,3872409.4070758065
513,3728402.0961535256
1291,1746016.3407844643
2,1, 8,21, 0, 9, 0.00,60.00,SummerDesignDay
7,31.079166666666666
684,23.88895160688689
747,31.66634339592524
10,9698212.750021685
22,3436548.288166884
34,3436548.288166884
46,3436548.288166884
513,4501161.971811438
1291,1754611.618440656
2,1, 8,21, 0,10, 0.00,60.00,SummerDesignDay
7,33.04083333333333
684,23.8893468243989
747,34.83577745077867
10,9450166.35389485
22,3287629.4627914913
34,3287629.4627914913
46,3287629.4627914913
513,5319089.772826428
1291,839430.6149114484
2,1, 8,21, 0,11, 0.00,60.00,SummerDesignDay
7,34.782500000000006
684,23.889329329630083
747,37.61741839645223
10,10387800.93437915
22,3359522.254572048
34,3359522.254572048
46,3359522.254572048
513,6121028.530819204
1291,903233.6456224154
2,1, 8,21, 0,12, 0.00,60.00,SummerDesignDay
7,36.11166666666667
684,23.89303893156955
747,39.732634076356234
10,11824294.66259842
22,3405817.7973429887
34,3405817.7973429887
46,3405817.7973429887
513,6692574.089289003
1291,1721886.2726009428
2,1, 8,21, 0,13, 0.00,60.00,SummerDesignDay
7,37.083333333333336
684,24.01870935314413
747,41.1205194385145
10,10234189.58897243
22,3343416.5845005065
34,3343416.5845005065
46,3343416.5845005065
513,6886756.501106439
1291,0.0
2,1, 8,21, 0,14, 0.00,60.00,SummerDesignDay
7,37.770833333333336
684,24.405061157816302
747,41.84131487377173
10,11927479.299227413
22,3277253.218523652
34,3277253.218523652
46,3277253.218523652
513,6943147.704788244
1291,1703061.8725500342
2,1, 8,21, 0,15, 0.00,60.00,SummerDesignDay
7,38.0
684,24.90758927409681
747,41.789014403008544
10,10251147.824928574
22,3272159.2094632606
34,3272159.2094632606
46,3272159.2094632606
513,6974972.112099832
1291,0.0
2,1, 8,21, 0,16, 0.00,60.00,SummerDesignDay
7,37.615
684,25.329482388902463
747,40.811764586289236
10,12213749.766780455
22,3549357.552769049
34,3549357.552769049
46,3549357.552769049
513,6965239.768065676
1291,1692190.5067788966
2,1, 8,21, 0,17, 0.00,60.00,SummerDesignDay
7,36.82666666666667
684,25.578076159499883
747,39.07790273685586
10,11416242.694856819
22,4479188.816479392
34,4479188.816479392
46,4479188.816479392
513,6922058.932479625
1291,0.0
2,1, 8,21, 0,18, 0.00,60.00,SummerDesignDay
7,35.818333333333335
684,25.62788086028742
747,36.86517480078543
10,14215345.395876221
22,5624286.233621349
34,5624286.233621349
46,5624286.233621349
513,6857988.104925792
1291,1712185.2398285728
2,1, 8,21, 0,19, 0.00,60.00,SummerDesignDay
7,34.3975
684,25.293138330593763
747,34.28607989540253
10,13596990.016762372
22,6045788.3062472865
34,6045788.3062472865
46,6045788.3062472865
513,6755731.18550914
1291,579253.2355057881
2,1, 8,21, 0,20, 0.00,60.00,SummerDesignDay
7,33.00416666666666
684,24.508435917788272
747,32.08338476730956
10,13980363.634807026
22,5971945.160957614
34,5971945.160957614
46,5971945.160957614
513,6638938.643368987
1291,1150219.7354003564
2,1, 8,21, 0,21, 0.00,60.00,SummerDesignDay
7,31.9225
684,23.935349076780582
747,30.776364855823918
10,14030815.84797617
22,5899533.255808762
34,5899533.255808762
46,5899533.255808762
513,6188688.993076056
1291,1723333.5040112815
2,1, 8,21, 0,22, 0.00,60.00,SummerDesignDay
7,30.9325
684,23.88952043645199
747,29.867406953043552
10,10744878.68148784
22,5386254.039457358
34,5386254.039457358
46,5386254.039457358
513,5146959.389677869
1291,0.0
2,1, 8,21, 0,23, 0.00,60.00,SummerDesignDay
7,30.07083333333333
684,23.88864080607094
747,29.089084787050073
10,10479557.063518502
22,4262786.538241955
34,4262786.538241955
46,4262786.538241955
513,4323423.7566859545
1291,1692124.4249882353
2,1, 8,21, 0,24, 0.00,60.00,SummerDesignDay
7,29.30083333333333
684,23.88845263603311
747,28.399868759327173
10,7123783.389914946
22,3276627.552965166
34,3276627.552965166
46,3276627.552965166
513,3653698.7331873532
1291,0.0
1,ANNUAL,  32.90, -97.02,  -6.00, 171.00
2,1, 2, 1, 0, 1, 0.00,60.00,Monday
7,4.683333333333334
684,22.222390236521488
747,5.55517282265875
10,16663711.824483577
22,2498479.0097388276
34,2498479.0097388276
46,2498479.0097388276
513,13974988.913674712
1291,0.0
2,1, 2, 1, 0, 2, 0.00,60.00,Monday
7,7.425
684,22.22323662422537
747,8.354434275776175
10,15541665.498123404
22,2287908.203727021
34,2287908.203727021
46,2287908.203727021
513,13063513.393326344
1291,0.0
2,1, 2, 1, 0, 3, 0.00,60.00,Monday
7,7.125
684,22.223210900572667
747,7.9500630634708545
10,16115176.454486404
22,2218387.455766968
34,2218387.455766968
46,2218387.455766968
513,13706545.097649397
1291,0.0
2,1, 2, 1, 0, 4, 0.00,60.00,Monday
7,6.825
684,22.223105286948652
747,7.791863734263818
10,17284766.025103275
22,2167160.80380385
34,2167160.80380385
46,2167160.80380385
513,14927361.320229385
1291,0.0
2,1, 2, 1, 0, 5, 0.00,60.00,Monday
7,5.708333333333333
684,22.222777938213074
747,6.749925753689513
10,19491034.46896716
22,2326991.86639299
34,2326991.86639299
46,2326991.86639299
513,16969514.431247618
1291,0.0
2,1, 2, 1, 0, 6, 0.00,60.00,Monday
7,4.3583333333333325
684,22.2230125700909
747,5.428736315231291
10,22281187.401683442
22,2888368.680950925
34,2888368.680950925
46,2888368.680950925
513,17486205.200565785
1291,1705123.4096733455
2,1, 2, 1, 0, 7, 0.00,60.00,Monday
7,3.5500000000000003
684,22.223172209159134
747,4.744803789143645
10,22141459.06699987
22,3455726.295687276
34,3455726.295687276
46,3455726.295687276
513,16873918.117089055
1291,1796819.7083257409
2,1, 2, 1, 0, 8, 0.00,60.00,Monday
7,2.3666666666666667
684,22.222874041496066
747,3.749270207087342
10,21504703.713410504
22,3804342.957438114
34,3804342.957438114
46,3804342.957438114
513,15849907.033551782
1291,1837065.3778689974
2,1, 2, 1, 0, 9, 0.00,60.00,Monday
7,1.9916666666666671
684,22.222483972588417
747,3.4531786573506786
10,19930170.607294284
22,3331560.1762823085
34,3331560.1762823085
46,3331560.1762823085
513,13959211.014025576
1291,2633508.5453836937
2,1, 2, 1, 0,10, 0.00,60.00,Monday
7,2.5500000000000003
684,22.222518451795725
747,4.289365759179678
10,18130861.05015474
22,3145052.4172653225
34,3145052.4172653225
46,3145052.4172653225
513,12100859.627464164
1291,2880932.502059776
2,1, 2, 1, 0,11, 0.00,60.00,Monday
7,3.0916666666666663
684,22.222510147406382
747,5.370711731268577
10,16023384.269693363
22,3201316.809840188
34,3201316.809840188
46,3201316.809840188
513,11012656.527699016
1291,1805394.4287886778
2,1, 2, 1, 0,12, 0.00,60.00,Monday
7,3.9416666666666664
684,22.22250856904333
747,6.421154602565665
10,15221849.805721367
22,3245056.7517732778
34,3245056.7517732778
46,3245056.7517732778
513,10193785.61474285
1291,1778990.9358397555
2,1, 2, 1, 0,13, 0.00,60.00,Monday
7,5.1000000000000005
684,22.22247146049213
747,7.893787910443205
10,13169661.826289453
22,3197289.398662933
34,3197289.398662933
46,3197289.398662933
513,8543712.150866821
1291,1424643.773394217
2,1, 2, 1, 0,14, 0.00,60.00,Monday
7,6.533333333333332
684,22.222469845278955
747,9.47880190019174
10,9966917.442291204
22,3143544.016284607
34,3143544.016284607
46,3143544.016284607
513,6487658.549380783
1291,331698.37326033134
2,1, 2, 1, 0,15, 0.00,60.00,Monday
7,7.2
684,22.222478512595686
747,9.501076226626376
10,11046297.095580157
22,3152610.4832543777
34,3152610.4832543777
46,3152610.4832543777
513,6154817.619768048
1291,1734852.4891922493
2,1, 2, 1, 0,16, 0.00,60.00,Monday
7,7.2
684,22.222519063375728
747,9.053421560608735
10,10788917.745768279
22,3436226.8211706067
34,3436226.8211706067
46,3436226.8211706067
513,5615814.0952493865
1291,1729914.8901814504
2,1, 2, 1, 0,17, 0.00,60.00,Monday
7,6.558333333333334
684,22.222534178508628
747,8.06233125003414
10,10836964.144061547
22,4368891.063756271
34,4368891.063756271
46,4368891.063756271
513,6453078.134407474
1291,0.0
2,1, 2, 1, 0,18, 0.00,60.00,Monday
7,5.108333333333334
684,22.22257787655094
747,6.527927231254253
10,14998674.686742384
22,5514884.4344747625
34,5514884.4344747625
46,5514884.4344747625
513,7694032.70292105
1291,1768871.7318460627
2,1, 2, 1, 0,19, 0.00,60.00,Monday
7,3.466666666666667
684,22.222612215688844
747,5.166746454665551
10,16129140.639913209
22,5936377.747743254
34,5936377.747743254
46,5936377.747743254
513,8180830.792980473
1291,1795714.8096893218
2,1, 2, 1, 0,20, 0.00,60.00,Monday
7,1.5166666666666666
684,22.222612987311702
747,3.9529125586046336
10,16636547.110422902
22,5860851.394397255
34,5860851.394397255
46,5860851.394397255
513,8754824.775237098
1291,1801610.8457084775
2,1, 2, 1, 0,21, 0.00,60.00,Monday
7,0.6
684,22.22258322874752
747,3.274537163367603
10,17720338.99902945
22,5788324.826793473
34,5788324.826793473
46,5788324.826793473
513,9925781.690008882
1291,1786972.3871470266
2,1, 2, 1, 0,22, 0.00,60.00,Monday
7,1.2416666666666667
684,22.22254721498452
747,3.2901890396691207
10,18290156.37734974
22,5275040.848512863
34,5275040.848512863
46,5275040.848512863
513,11036842.992027752
1291,1766607.284456513
2,1, 2, 1, 0,23, 0.00,60.00,Monday
7,1.0583333333333333
684,22.22250725687877
747,3.1533904828646726
10,18540546.583294395
22,4175767.1653783405
34,4175767.1653783405
46,4175767.1653783405
513,12430677.196954414
1291,1732879.8773592813
2,1, 2, 1, 0,24, 0.00,60.00,Monday
7,0.6
684,22.222472837344927
747,2.511426887487941
10,17826797.78532463
22,3228431.3064444675
34,3228431.3064444675
46,3228431.3064444675
513,14404909.375117738
1291,0.0
2,2, 2, 2, 0, 1, 0.00,60.00,Tuesday
7,-0.09999999999999998
684,22.22256154596369
747,1.6633986217122223
10,21393467.615963385
22,2498479.0097388276
34,2498479.0097388276
46,2498479.0097388276
513,17038066.52579219
1291,1666678.1793623292
2,2, 2, 2, 0, 2, 0.00,60.00,Tuesday
7,-1.2416666666666667
684,22.22318424704137
747,0.5446425933299414
10,21671734.710771535
22,2287908.203727021
34,2287908.203727021
46,2287908.203727021
513,19193582.605974477
1291,0.0
2,2, 2, 2, 0, 3, 0.00,60.00,Tuesday
7,-1.9916666666666671
684,22.22292026870512
747,-0.10150871576924587
10,23262387.82239805
22,2218387.455766968
34,2218387.455766968
46,2218387.455766968
513,20853756.46556104
1291,0.0
2,2, 2, 2, 0, 4, 0.00,60.00,Tuesday
7,-2.1999999999999997
684,22.222842385242647
747,-0.30242025826478985
10,23734752.542107888
22,2167160.80380385
34,2167160.80380385
46,2167160.80380385
513,21377347.837233998
1291,0.0
2,2, 2, 2, 0, 5, 0.00,60.00,Tuesday
7,-2.841666666666667
684,22.22262983930111
747,-0.9300818553627269
10,25030615.079722974
22,2326991.86639299
34,2326991.86639299
46,2326991.86639299
513,22509095.042003427
1291,0.0
2,2, 2, 2, 0, 6, 0.00,60.00,Tuesday
7,-3.65
684,22.222604761071562
747,-1.5277088436462278
10,27642573.239422847
22,2888368.680950925
34,2888368.680950925
46,2888368.680950925
513,22847580.274194732
1291,1705134.1737837957
2,2, 2, 2, 0, 7, 0.00,60.00,Tuesday
7,-4.191666666666666
684,22.222871620407105
747,-1.526913494248961
10,26870019.251659703
22,3455726.295687276
34,3455726.295687276
46,3455726.295687276
513,21602048.351306297
1291,1797249.65876833
2,2, 2, 2, 0, 8, 0.00,60.00,Tuesday
7,-4.3999999999999995
684,22.22281947707549
747,-2.0259534915129396
10,27581335.411823176
22,3804342.957438114
34,3804342.957438114
46,3804342.957438114
513,21926896.452384297
1291,1836707.6574491542
2,2, 2, 2, 0, 9, 0.00,60.00,Tuesday
7,-3.7583333333333333
684,22.222701781659215
747,-1.4275932400520193
10,25109813.324913517
22,3331560.1762823085
34,3331560.1762823085
46,3331560.1762823085
513,19926398.382140834
1291,1845963.8948876662
2,2, 2, 2, 0,10, 0.00,60.00,Tuesday
7,-2.658333333333333
684,22.222432355135755
747,0.17753751590919917
10,24143698.44538115
22,3145052.4172653225
34,3145052.4172653225
46,3145052.4172653225
513,17331395.6048871
1291,3663233.9198632417
2,2, 2, 2, 0,11, 0.00,60.00,Tuesday
7,-1.5583333333333336
684,22.22247168976997
747,1.4698424366719172
10,20883690.641864635
22,3201316.809840188
34,3201316.809840188
46,3201316.809840188
513,15873242.644242946
1291,1805114.684416018
2,2, 2, 2, 0,12, 0.00,60.00,Tuesday
7,-0.1083333333333334
684,22.222477793251304
747,2.896581699540404
10,19643911.89442979
22,3245056.7517732778
34,3245056.7517732778
46,3245056.7517732778
513,14615679.676900353
1291,1779158.962390679
2,2, 2, 2, 0,13, 0.00,60.00,Tuesday
7,1.2416666666666667
684,22.22244652760453
747,4.473797553890272
10,14876789.146970034
22,3197289.398662933
34,3197289.398662933
46,3197289.398662933
513,11675483.24494162
1291,0.0
2,2, 2, 2, 0,14, 0.00,60.00,Tuesday
7,2.341666666666667
684,22.22238038642023
747,6.526670083713301
10,13609510.176263105
22,3143544.016284607
34,3143544.016284607
46,3143544.016284607
513,8716105.171528528
1291,1745844.4850844888
2,2, 2, 2, 0,15, 0.00,60.00,Tuesday
7,3.0916666666666663
684,22.22244927713702
747,10.35973740121011
10,10691428.925471377
22,3152610.4832543777
34,3152610.4832543777
46,3152610.4832543777
513,5799964.909110406
1291,1734837.0297411098
2,2, 2, 2, 0,16, 0.00,60.00,Tuesday
7,3.9416666666666664
684,22.222715468220084
747,11.952255172930668
10,9256810.295629032
22,3436226.8211706067
34,3436226.8211706067
46,3436226.8211706067
513,4083999.1687674345
1291,1729622.3665241555
2,2, 2, 2, 0,17, 0.00,60.00,Tuesday
7,4.75
684,22.22243901934537
747,10.570605160710068
10,7785060.22968662
22,4368891.063756271
34,4368891.063756271
46,4368891.063756271
513,3401174.2200325476
1291,0.0
2,2, 2, 2, 0,18, 0.00,60.00,Tuesday
7,4.3583333333333325
684,22.222268370625418
747,8.626780717527867
10,11467216.042555392
22,5514884.4344747625
34,5514884.4344747625
46,5514884.4344747625
513,4162798.7845505523
1291,1768647.0060295705
2,2, 2, 2, 0,19, 0.00,60.00,Tuesday
7,2.6166666666666667
684,22.222542550210935
747,6.775836794556086
10,13990661.161991455
22,5936377.747743254
34,5936377.747743254
46,5936377.747743254
513,6042628.062686039
1291,1795438.0620620048
2,2, 2, 2, 0,20, 0.00,60.00,Tuesday
7,1.9916666666666671
684,22.222520296328252
747,6.711259789169183
10,14620276.606201492
22,5860851.394397255
34,5860851.394397255
46,5860851.394397255
513,6738258.378596035
1291,1801906.7381281336
2,2, 2, 2, 0,21, 0.00,60.00,Tuesday
7,0.9166666666666666
684,22.22251381874203
747,5.8724327556917855
10,15907399.851449952
22,5788324.826793473
34,5788324.826793473
46,5788324.826793473
513,8112566.879021089
1291,1787248.0505553219
2,2, 2, 2, 0,22, 0.00,60.00,Tuesday
7,-1.2833333333333334
684,22.222275757967353
747,2.867523215519098
10,18342156.93595583
22,5275040.848512863
34,5275040.848512863
46,5275040.848512863
513,11088734.2412066
1291,1766716.5938837575
2,2, 2, 2, 0,23, 0.00,60.00,Tuesday
7,-2.841666666666667
684,22.222514605029755
747,0.5543361564569261
10,20829693.13533534
22,4175767.1653783405
34,4175767.1653783405
46,4175767.1653783405
513,14719985.325021002
1291,1732718.3013336402
2,2, 2, 2, 0,24, 0.00,60.00,Tuesday
7,-3.008333333333333
684,22.222465193493704
747,-0.0254752260828716
10,20230717.583858542
22,3228431.3064444675
34,3228431.3064444675
46,3228431.3064444675
513,16808829.173651654
1291,0.0
2,3, 2, 3, 0, 1, 0.00,60.00,Wednesday
7,-2.8000000000000003
684,22.222418835110293
747,-0.05795191459237975
10,22589883.943242487
22,2498479.0097388276
34,2498479.0097388276
46,2498479.0097388276
513,18234474.23365768
1291,1666686.7987759428
2,3, 2, 3, 0, 2, 0.00,60.00,Wednesday
7,-2.158333333333333
684,22.223170236196065
747,0.14200268968187638
10,21893291.939987663
22,2287908.203727021
34,2287908.203727021
46,2287908.203727021
513,19415139.835190605
1291,0.0
2,3, 2, 3, 0, 3, 0.00,60.00,Wednesday
7,-1.7
684,22.223032233622295
747,0.4418353058589099
10,22484980.12219375
22,2218387.455766968
34,2218387.455766968
46,2218387.455766968
513,20076348.765356746
1291,0.0
2,3, 2, 3, 0, 4, 0.00,60.00,Wednesday
7,-1.3500000000000003
684,22.222997687840493
747,0.652058448301407
10,22567433.73648424
22,2167160.80380385
34,2167160.80380385
46,2167160.80380385
513,20210029.03161035
1291,0.0
2,3, 2, 3, 0, 5, 0.00,60.00,Wednesday
7,-1.45
684,22.22303495308555
747,0.8283830814424838
10,22385606.974346656
22,2326991.86639299
34,2326991.86639299
46,2326991.86639299
513,19864086.936627116
1291,0.0
2,3, 2, 3, 0, 6, 0.00,60.00,Wednesday
7,-2.983333333333333
684,22.222998068012576
747,0.29779834881100753
10,24848262.079140477
22,2888368.680950925
34,2888368.680950925
46,2888368.680950925
513,20053516.428219315
1291,1704886.859476845
2,3, 2, 3, 0, 7, 0.00,60.00,Wednesday
7,-4.191666666666666
684,22.223000442070656
747,-0.40638332422891427
10,25614658.35076012
22,3455726.295687276
34,3455726.295687276
46,3455726.295687276
513,20346852.844427604
1291,1797084.2647474422
2,3, 2, 3, 0, 8, 0.00,60.00,Wednesday
7,-4.108333333333333
684,22.2230000335676
747,-0.5349432867393877
10,25356969.950084955
22,3804342.957438114
34,3804342.957438114
46,3804342.957438114
513,19702103.147432115
1291,1837135.5006631182
2,3, 2, 3, 0, 9, 0.00,60.00,Wednesday
7,-1.625
684,22.222395898193014
747,1.7076480401394367
10,21961313.8297482
22,3331560.1762823085
34,3331560.1762823085
46,3331560.1762823085
513,16778159.380399354
1291,1845703.4014638325
2,3, 2, 3, 0,10, 0.00,60.00,Wednesday
7,2.275
684,22.222371815389213
747,5.276453334418142
10,18887832.36130223
22,3145052.4172653225
34,3145052.4172653225
46,3145052.4172653225
513,12999199.90682408
1291,2739563.533847343
2,3, 2, 3, 0,11, 0.00,60.00,Wednesday
7,5.825
684,22.222335808145456
747,8.364211856312226
10,15957929.990204562
22,3201316.809840188
34,3201316.809840188
46,3201316.809840188
513,10037723.856335679
1291,2714872.8206632137
2,3, 2, 3, 0,12, 0.00,60.00,Wednesday
7,8.483333333333333
684,22.22242862251964
747,10.757595737113087
10,11601009.269344233
22,3245056.7517732778
34,3245056.7517732778
46,3245056.7517732778
513,7343640.999556739
1291,1008295.0146487348
2,3, 2, 3, 0,13, 0.00,60.00,Wednesday
7,10.391666666666667
684,22.222851247808347
747,13.163724526691844
10,8682255.862989614
22,3197289.398662933
34,3197289.398662933
46,3197289.398662933
513,4719224.505110027
1291,761725.4558511714
2,3, 2, 3, 0,14, 0.00,60.00,Wednesday
7,12.091666666666667
684,22.223102704872076
747,15.205327561907763
10,7202489.093193896
22,3143544.016284607
34,3143544.016284607
46,3143544.016284607
513,2308820.467117246
1291,1746108.106426562
2,3, 2, 3, 0,15, 0.00,60.00,Wednesday
7,13.091666666666667
684,22.187584192339504
747,14.987575634210708
10,5741081.068976577
22,3152610.4832543777
34,3152610.4832543777
46,3152610.4832543777
513,849297.6166135715
1291,1735156.4657431461
2,3, 2, 3, 0,16, 0.00,60.00,Wednesday
7,13.65
684,22.239729893532374
747,14.823384352306256
10,3726725.8829490375
22,3436226.8211706067
34,3436226.8211706067
46,3436226.8211706067
513,283537.12261159456
1291,0.0
2,3, 2, 3, 0,17, 0.00,60.00,Wednesday
7,13.549999999999999
684,22.484771888058493
747,14.543583774485334
10,6282824.115373237
22,4368891.063756271
34,4368891.063756271
46,4368891.063756271
513,154285.71428571438
1291,1744652.3914334504
2,3, 2, 3, 0,18, 0.00,60.00,Wednesday
7,12.016666666666667
684,22.345229477778428
747,12.971553471079664
10,7681400.94922255
22,5514884.4344747625
34,5514884.4344747625
46,5514884.4344747625
513,377102.8312778408
1291,1768527.8659694376
2,3, 2, 3, 0,19, 0.00,60.00,Wednesday
7,9.816666666666666
684,22.216333757325014
747,11.676228788771866
10,9843474.390721392
22,5936377.747743254
34,5936377.747743254
46,5936377.747743254
513,1895171.8389324527
1291,1795707.5145455261
2,3, 2, 3, 0,20, 0.00,60.00,Wednesday
7,7.616666666666668
684,22.22235077211705
747,10.073550510689222
10,11334091.090349542
22,5860851.394397255
34,5860851.394397255
46,5860851.394397255
513,3452232.264892822
1291,1801747.3359793965
2,3, 2, 3, 0,21, 0.00,60.00,Wednesday
7,6.058333333333334
684,22.222509744247073
747,8.864355729346004
10,12442544.604236633
22,5788324.826793473
34,5788324.826793473
46,5788324.826793473
513,4648138.866374172
1291,1786820.8159889178
2,3, 2, 3, 0,22, 0.00,60.00,Wednesday
7,5.6000000000000005
684,22.222497848681627
747,8.267954175666253
10,12945454.84452007
22,5275040.848512863
34,5275040.848512863
46,5275040.848512863
513,5691739.16186156
1291,1767009.5817930372
2,3, 2, 3, 0,23, 0.00,60.00,Wednesday
7,5.6000000000000005
684,22.222472285654423
747,7.986713133240458
10,13335426.50768437
22,4175767.1653783405
34,4175767.1653783405
46,4175767.1653783405
513,7225954.009549021
1291,1732482.9891546522
2,3, 2, 3, 0,24, 0.00,60.00,Wednesday
7,5.6000000000000005
684,22.222444477187178
747,7.893482673625074
10,12132496.519752491
22,3228431.3064444675
34,3228431.3064444675
46,3228431.3064444675
513,8710608.109545602
1291,0.0
2,4, 2, 4, 0, 1, 0.00,60.00,Thursday
7,5.25
684,22.222431604110355
747,7.365636825210348
10,12912064.651849668
22,2498479.0097388276