Program Version,EnergyPlus, Version 22.2.0-c249759bad, YMD=2023.05.28 19:20
1,5,Environment Title[],Latitude[deg],Longitude[deg],Time Zone[],Elevation[m]
2,8,Day of Simulation[],Month[],Day of Month[],DST Indicator[1=yes 0=no],Hour[],StartMinute[],EndMinute[],DayType
3,5,Cumulative Day of Simulation[],Month[],Day of Month[],DST Indicator[1=yes 0=no],DayType  ! When Daily Meters Requested
4,2,Cumulative Days of Simulation[],Month[]  ! When Monthly Meters Requested
5,1,Cumulative Days of Simulation[] ! When Run Period Meters Requested
6,1,Calendar Year of Simulation[] ! When Annual Meters Requested
10,1,Electricity:Facility [J] !Hourly
22,1,Electricity:Building [J] !Hourly
34,1,Electricity:Zone:LIVING_UNIT1 [J] !Hourly
46,1,Electricity:SpaceType:GENERAL [J] !Hourly
513,1,Electricity:HVAC [J] !Hourly
1291,1,Electricity:Plant [J] !Hourly
End of Data Dictionary
1,DALLAS FORT WORTH INTL AP ANN HTG 99.6% CONDNS DB,  32.90, -97.02,  -6.00, 171.00
2,1, 1,21, 0, 1, 0.00,60.00,WinterDesignDay
10,30096495.634598147
22,2519341.8750856025
34,2519341.8750856025
46,2519341.8750856025
513,27386909.858442508
1291,0.0
2,1, 1,21, 0, 2, 0.00,60.00,WinterDesignDay
10,30188852.446816836
22,2300485.626558334
34,2300485.626558334
46,2300485.626558334
513,27698122.91918846
1291,0.0
2,1, 1,21, 0, 3, 0.00,60.00,WinterDesignDay
10,30265593.473371603
22,2226600.0926204654
34,2226600.0926204654
46,2226600.0926204654
513,27848749.479681097
1291,0.0
2,1, 1,21, 0, 4, 0.00,60.00,WinterDesignDay
10,30297172.94802053
22,2171740.4070940726
34,2171740.4070940726
46,2171740.4070940726
513,27935188.63985642
1291,0.0
2,1, 1,21, 0, 5, 0.00,60.00,WinterDesignDay
10,31313012.921831142
22,2335718.210080423
34,2335718.210080423
46,2335718.210080423
513,27885651.94885949
1291,897114.5915646732
2,1, 1,21, 0, 6, 0.00,60.00,WinterDesignDay
10,31457908.345336106
22,2902111.397117286
34,2902111.397117286
46,2902111.397117286
513,27569186.36172695
1291,785120.4759984853
2,1, 1,21, 0, 7, 0.00,60.00,WinterDesignDay
10,32547579.022956163
22,3490045.529346395
34,3490045.529346395
46,3490045.529346395
513,27242309.961886268
1291,1800228.5858256938
2,1, 1,21, 0, 8, 0.00,60.00,WinterDesignDay
10,32898220.593201324
22,3872409.4070758065
34,3872409.4070758065
46,3872409.4070758065
513,27168259.966397244
1291,1844162.8751766607
2,1, 1,21, 0, 9, 0.00,60.00,WinterDesignDay
10,35071037.93254356
22,3436548.288166884
34,3436548.288166884
46,3436548.288166884
513,27912674.03896188
1291,3715924.733812097
2,1, 1,21, 0,10, 0.00,60.00,WinterDesignDay
10,33457961.12774546
22,3287629.4627914913
34,3287629.4627914913
46,3287629.4627914913
513,28320736.44913903
1291,1845578.7124494566
2,1, 1,21, 0,11, 0.00,60.00,WinterDesignDay
10,33571477.66344817
22,3359522.254572048
34,3359522.254572048
46,3359522.254572048
513,28389174.260110497
1291,1818764.6454001423
2,1, 1,21, 0,12, 0.00,60.00,WinterDesignDay
10,33615997.96299803
22,3405817.7973429887
34,3405817.7973429887
46,3405817.7973429887
513,28415532.021163877
1291,1790631.641125681
2,1, 1,21, 0,13, 0.00,60.00,WinterDesignDay
10,33553566.168487128
22,3343416.5845005065
34,3343416.5845005065
46,3343416.5845005065
513,28437007.456718486
1291,1769125.623902652
2,1, 1,21, 0,14, 0.00,60.00,WinterDesignDay
10,33477392.052970145
22,3277253.218523652
34,3277253.218523652
46,3277253.218523652
513,28440891.96794588
1291,1755230.3631351243
2,1, 1,21, 0,15, 0.00,60.00,WinterDesignDay
10,32011013.892897293
22,3272159.2094632606
34,3272159.2094632606
46,3272159.2094632606
513,28422946.239197638
1291,311891.94087091286
2,1, 1,21, 0,16, 0.00,60.00,WinterDesignDay
10,33261859.31651018
22,3549357.552769049
34,3549357.552769049
46,3549357.552769049
513,28279453.931909166
1291,1426085.892665129
2,1, 1,21, 0,17, 0.00,60.00,WinterDesignDay
10,33980648.45491022
22,4479188.816479392
34,4479188.816479392
46,4479188.816479392
513,27734188.04789997
1291,1752276.6446330536
2,1, 1,21, 0,18, 0.00,60.00,WinterDesignDay
10,34209414.44458588
22,5624286.233621349
34,5624286.233621349
46,5624286.233621349
513,26787684.67285885
1291,1776557.720605174
2,1, 1,21, 0,19, 0.00,60.00,WinterDesignDay
10,33908068.474217094
22,6045788.3062472865
34,6045788.3062472865
46,6045788.3062472865
513,25841936.110444564
1291,1804126.768025081
2,1, 1,21, 0,20, 0.00,60.00,WinterDesignDay
10,33551873.06279449
22,5971945.160957614
34,5971945.160957614
46,5971945.160957614
513,25550189.58505809
1291,1810478.2216987128
2,1, 1,21, 0,21, 0.00,60.00,WinterDesignDay
10,33355949.730836462
22,5899533.255808762
34,5899533.255808762
46,5899533.255808762
513,25441515.707042743
1291,1795640.6729048842
2,1, 1,21, 0,22, 0.00,60.00,WinterDesignDay
10,32930868.347561065
22,5386254.039457358
34,5386254.039457358
46,5386254.039457358
513,25558372.693549186
1291,1774576.3622019053
2,1, 1,21, 0,23, 0.00,60.00,WinterDesignDay
10,32367558.870175432
22,4262786.538241955
34,4262786.538241955
46,4262786.538241955
513,26166134.094927777
1291,1737415.893403347
2,1, 1,21, 0,24, 0.00,60.00,WinterDesignDay
10,30296130.68065626
22,3276627.552965166
34,3276627.552965166
46,3276627.552965166
513,26826046.023928672
1291,0.0
1,DALLAS FORT WORTH INTL AP ANN CLG .4% CONDNS DB=>MWB,  32.90, -97.02,  -6.00, 171.00
2,1, 8,21, 0, 1, 0.00,60.00,SummerDesignDay
10,5819479.778584529
22,2519341.8750856025
34,2519341.8750856025
46,2519341.8750856025
513,3109894.0024288874
1291,0.0
2,1, 8,21, 0, 2, 0.00,60.00,SummerDesignDay
10,5221089.456820628
22,2300485.626558334
34,2300485.626558334
46,2300485.626558334
513,2730359.9291922553
1291,0.0
2,1, 8,21, 0, 3, 0.00,60.00,SummerDesignDay
10,4883044.331926479
22,2226600.0926204654
34,2226600.0926204654
46,2226600.0926204654
513,2466200.3382359752
1291,0.0
2,1, 8,21, 0, 4, 0.00,60.00,SummerDesignDay
10,4620746.634832384
22,2171740.4070940726
34,2171740.4070940726
46,2171740.4070940726
513,2258762.3266682727
1291,0.0
2,1, 8,21, 0, 5, 0.00,60.00,SummerDesignDay
10,4658144.740078036
22,2335718.210080423
34,2335718.210080423
46,2335718.210080423
513,2127898.3586710603
1291,0.0
2,1, 8,21, 0, 6, 0.00,60.00,SummerDesignDay
10,6922627.101696492
22,2902111.397117286
34,2902111.397117286
46,2902111.397117286
513,2144656.868847643
1291,1674368.7252381742
2,1, 8,21, 0, 7, 0.00,60.00,SummerDesignDay
10,6221843.16348972
22,3490045.529346395
34,3490045.529346395
46,3490045.529346395
513,2716802.6882455237
1291,0.0
2,1, 8,21, 0, 8, 0.00,60.00,SummerDesignDay
10,9360216.18856921
22,3872409.4070758065
34,3872409.4070758065
46,3872409.4070758065
513,3728402.0961573306
1291,1746016.3407844654
2,1, 8,21, 0, 9, 0.00,60.00,SummerDesignDay
10,9698212.75002412
22,3436548.288166884
34,3436548.288166884
46,3436548.288166884
513,4501161.971813898
1291,1754611.6184406304
2,1, 8,21, 0,10, 0.00,60.00,SummerDesignDay
10,9450166.35389356
22,3287629.4627914913
34,3287629.4627914913
46,3287629.4627914913
513,5319089.772827228
1291,839430.6149093559
2,1, 8,21, 0,11, 0.00,60.00,SummerDesignDay
10,10387800.934379887
22,3359522.254572048
34,3359522.254572048
46,3359522.254572048
513,6121028.530817884
1291,903233.6456244735
2,1, 8,21, 0,12, 0.00,60.00,SummerDesignDay
10,11824294.662597321
22,3405817.7973429887
34,3405817.7973429887
46,3405817.7973429887
513,6692574.089287906
1291,1721886.2726009432
2,1, 8,21, 0,13, 0.00,60.00,SummerDesignDay
10,10234189.58897243
22,3343416.5845005065
34,3343416.5845005065
46,3343416.5845005065
513,6886756.501106439
1291,0.0
2,1, 8,21, 0,14, 0.00,60.00,SummerDesignDay
10,11927479.299227415
22,3277253.218523652
34,3277253.218523652
46,3277253.218523652
513,6943147.704788244
1291,1703061.8725500351
2,1, 8,21, 0,15, 0.00,60.00,SummerDesignDay
10,10251147.824928574
22,3272159.2094632606
34,3272159.2094632606
46,3272159.2094632606
513,6974972.112099832
1291,0.0
2,1, 8,21, 0,16, 0.00,60.00,SummerDesignDay
10,12213749.766780496
22,3549357.552769049
34,3549357.552769049
46,3549357.552769049
513,6965239.768065676
1291,1692190.506778936
2,1, 8,21, 0,17, 0.00,60.00,SummerDesignDay
10,11416242.694856819
22,4479188.816479392
34,4479188.816479392
46,4479188.816479392
513,6922058.932479625
1291,0.0
2,1, 8,21, 0,18, 0.00,60.00,SummerDesignDay
10,14215345.395876221
22,5624286.233621349
34,5624286.233621349
46,5624286.233621349
513,6857988.104925792
1291,1712185.2398285728
2,1, 8,21, 0,19, 0.00,60.00,SummerDesignDay
10,13596990.016761925
22,6045788.3062472865
34,6045788.3062472865
46,6045788.3062472865
513,6755731.18550914
1291,579253.2355053414
2,1, 8,21, 0,20, 0.00,60.00,SummerDesignDay
10,13980363.634808702
22,5971945.160957614
34,5971945.160957614
46,5971945.160957614
513,6638938.643368987
1291,1150219.7354020313
2,1, 8,21, 0,21, 0.00,60.00,SummerDesignDay
10,14030815.84796501
22,5899533.255808762
34,5899533.255808762
46,5899533.255808762
513,6188688.993064861
1291,1723333.5040113158
2,1, 8,21, 0,22, 0.00,60.00,SummerDesignDay
10,10744878.681482632
22,5386254.039457358
34,5386254.039457358
46,5386254.039457358
513,5146959.389672661
1291,0.0
2,1, 8,21, 0,23, 0.00,60.00,SummerDesignDay
10,10479557.06351472
22,4262786.538241955
34,4262786.538241955
46,4262786.538241955
513,4323423.756682244
1291,1692124.424988162
2,1, 8,21, 0,24, 0.00,60.00,SummerDesignDay
10,7123783.3899125885
22,3276627.552965166
34,3276627.552965166
46,3276627.552965166
513,3653698.733184999
1291,0.0
1,ANNUAL,  32.90, -97.02,  -6.00, 171.00
2,1, 2, 1, 0, 1, 0.00,60.00,Monday
10,16663587.002978306
22,2498479.0097388276
34,2498479.0097388276
46,2498479.0097388276
513,13974864.09216944
1291,0.0
2,1, 2, 1, 0, 2, 0.00,60.00,Monday
10,15541572.344027778
22,2287908.203727021
34,2287908.203727021
46,2287908.203727021
513,13063420.239230718
1291,0.0
2,1, 2, 1, 0, 3, 0.00,60.00,Monday
10,16115073.239825923
22,2218387.455766968
34,2218387.455766968
46,2218387.455766968
513,13706441.882988917
1291,0.0
2,1, 2, 1, 0, 4, 0.00,60.00,Monday
10,17284658.905635025
22,2167160.80380385
34,2167160.80380385
46,2167160.80380385
513,14927254.200761136
1291,0.0
2,1, 2, 1, 0, 5, 0.00,60.00,Monday
10,19490911.5376376
22,2326991.86639299
34,2326991.86639299
46,2326991.86639299
513,16969391.49991806
1291,0.0
2,1, 2, 1, 0, 6, 0.00,60.00,Monday
10,22281047.10395569
22,2888368.680950925
34,2888368.680950925
46,2888368.680950925
513,17486064.902893372
1291,1705123.4096180024
2,1, 2, 1, 0, 7, 0.00,60.00,Monday
10,22141313.383149557
22,3455726.295687276
34,3455726.295687276
46,3455726.295687276
513,16873772.433322307
1291,1796819.7082421733
2,1, 2, 1, 0, 8, 0.00,60.00,Monday
10,21504556.823482677
22,3804342.957438114
34,3804342.957438114
46,3804342.957438114
513,15849760.143716246
1291,1837065.377776709
2,1, 2, 1, 0, 9, 0.00,60.00,Monday
10,19930035.3342331
22,3331560.1762823085
34,3331560.1762823085
46,3331560.1762823085
513,13959075.773939686
1291,2633508.5124084014
2,1, 2, 1, 0,10, 0.00,60.00,Monday
10,18130747.852494027
22,3145052.4172653225
34,3145052.4172653225
46,3145052.4172653225
513,12100746.397093993
1291,2880932.534769233
2,1, 2, 1, 0,11, 0.00,60.00,Monday
10,16023296.728358459
22,3201316.809840188
34,3201316.809840188
46,3201316.809840188
513,11012568.986366669
1291,1805394.428786119
2,1, 2, 1, 0,12, 0.00,60.00,Monday
10,15221776.284546662
22,3245056.7517732778
34,3245056.7517732778
46,3245056.7517732778
513,10193712.09359838
1291,1778990.935809521
2,1, 2, 1, 0,13, 0.00,60.00,Monday
10,13169607.844164465
22,3197289.398662933
34,3197289.398662933
46,3197289.398662933
513,8543658.21834131
1291,1424643.7237947388
2,1, 2, 1, 0,14, 0.00,60.00,Monday
10,9966883.474992674
22,3143544.016284607
34,3143544.016284607
46,3143544.016284607
513,6487624.5328793
1291,331698.4224632848
2,1, 2, 1, 0,15, 0.00,60.00,Monday
10,11046267.834189145
22,3152610.4832543777
34,3152610.4832543777
46,3152610.4832543777
513,6154788.358397137
1291,1734852.4891721478
2,1, 2, 1, 0,16, 0.00,60.00,Monday
10,10788889.914359044
22,3436226.8211706067
34,3436226.8211706067
46,3436226.8211706067
513,5615786.263838837
1291,1729914.890182765
2,1, 2, 1, 0,17, 0.00,60.00,Monday
10,10836929.028325424
22,4368891.063756271
34,4368891.063756271
46,4368891.063756271
513,6453043.018671351
1291,0.0
2,1, 2, 1, 0,18, 0.00,60.00,Monday
10,14998623.995798297
22,5514884.4344747625
34,5514884.4344747625
46,5514884.4344747625
513,7693982.011977249
1291,1768871.731845778
2,1, 2, 1, 0,19, 0.00,60.00,Monday
10,16129077.001326077
22,5936377.747743254
34,5936377.747743254
46,5936377.747743254
513,8180767.154354215
1291,1795714.809728447
2,1, 2, 1, 0,20, 0.00,60.00,Monday
10,16636469.132526822
22,5860851.394397255
34,5860851.394397255
46,5860851.394397255
513,8754746.797322745
1291,1801610.8457267531
2,1, 2, 1, 0,21, 0.00,60.00,Monday
10,17720242.075602308
22,5788324.826793473
34,5788324.826793473
46,5788324.826793473
513,9925684.766593058
1291,1786972.3871357082
2,1, 2, 1, 0,22, 0.00,60.00,Monday
10,18290045.60419876
22,5275040.848512863
34,5275040.848512863
46,5275040.848512863
513,11036732.218865152
1291,1766607.2844681367
2,1, 2, 1, 0,23, 0.00,60.00,Monday
10,18540420.135884445
22,4175767.1653783405
34,4175767.1653783405
46,4175767.1653783405
513,12430550.749546824
1291,1732879.8773569241
2,1, 2, 1, 0,24, 0.00,60.00,Monday
10,17826642.638471674
22,3228431.3064444675
34,3228431.3064444675
46,3228431.3064444675
513,14404754.228264784
1291,0.0
2,2, 2, 2, 0, 1, 0.00,60.00,Tuesday
10,21393276.77107077
22,2498479.0097388276
34,2498479.0097388276
46,2498479.0097388276
513,17037875.680800676
1291,1666678.1794612291
2,2, 2, 2, 0, 2, 0.00,60.00,Tuesday
10,21671503.9287595
22,2287908.203727021
34,2287908.203727021
46,2287908.203727021
513,19193351.823962443
1291,0.0
2,2, 2, 2, 0, 3, 0.00,60.00,Tuesday
10,23262128.38638173
22,2218387.455766968
34,2218387.455766968
46,2218387.455766968
513,20853497.02954473
1291,0.0
2,2, 2, 2, 0, 4, 0.00,60.00,Tuesday
10,23734481.992461376
22,2167160.80380385
34,2167160.80380385
46,2167160.80380385
513,21377077.287587486
1291,0.0
2,2, 2, 2, 0, 5, 0.00,60.00,Tuesday
10,25030324.360901177
22,2326991.86639299
34,2326991.86639299
46,2326991.86639299
513,22508804.323181637
1291,0.0
2,2, 2, 2, 0, 6, 0.00,60.00,Tuesday
10,27642261.464267623
22,2888368.680950925
34,2888368.680950925
46,2888368.680950925
513,22847268.49940122
1291,1705134.173422086
2,2, 2, 2, 0, 7, 0.00,60.00,Tuesday
10,26869721.715102013
22,3455726.295687276
34,3455726.295687276
46,3455726.295687276
513,21601750.81493632
1291,1797249.6585806159
2,2, 2, 2, 0, 8, 0.00,60.00,Tuesday
10,27581030.283893026
22,3804342.957438114
34,3804342.957438114
46,3804342.957438114
513,21926591.324685916
1291,1836707.6572173869
2,2, 2, 2, 0, 9, 0.00,60.00,Tuesday
10,25109544.854322124
22,3331560.1762823085
34,3331560.1762823085
46,3331560.1762823085
513,19926129.91166445
1291,1845963.8947726628
2,2, 2, 2, 0,10, 0.00,60.00,Tuesday
10,24143488.795698747
22,3145052.4172653225
34,3145052.4172653225
46,3145052.4172653225
513,17331185.95526585
1291,3663233.919802094
2,2, 2, 2, 0,11, 0.00,60.00,Tuesday
10,20883516.574856233
22,3201316.809840188
34,3201316.809840188
46,3201316.809840188
513,15873068.577175265
1291,1805114.684475298
2,2, 2, 2, 0,12, 0.00,60.00,Tuesday
10,19643767.429040417
22,3245056.7517732778
34,3245056.7517732778
46,3245056.7517732778
513,14615535.211530522
1291,1779158.9623711356
2,2, 2, 2, 0,13, 0.00,60.00,Tuesday
10,14876683.065541262
22,3197289.398662933
34,3197289.398662933
46,3197289.398662933
513,11675377.163512846
1291,0.0
2,2, 2, 2, 0,14, 0.00,60.00,Tuesday
10,13609445.63122504
22,3143544.016284607
34,3143544.016284607
46,3143544.016284607
513,8716040.626420245
1291,1745844.4851547068
2,2, 2, 2, 0,15, 0.00,60.00,Tuesday
10,10691398.624568578
22,3152610.4832543777
34,3152610.4832543777
46,3152610.4832543777
513,5799934.6081842845
1291,1734837.029764431
2,2, 2, 2, 0,16, 0.00,60.00,Tuesday
10,9256797.15378685
22,3436226.8211706067
34,3436226.8211706067
46,3436226.8211706067
513,4083986.0269129043
1291,1729622.3665365023
2,2, 2, 2, 0,17, 0.00,60.00,Tuesday
10,7785047.534692591
22,4368891.063756271
34,4368891.063756271
46,4368891.063756271
513,3401161.5250385194
1291,0.0
2,2, 2, 2, 0,18, 0.00,60.00,Tuesday
10,11467194.385267679
22,5514884.4344747625
34,5514884.4344747625
46,5514884.4344747625
513,4162777.127283409
1291,1768647.0060089976
2,2, 2, 2, 0,19, 0.00,60.00,Tuesday
10,13990617.525346655
22,5936377.747743254
34,5936377.747743254
46,5936377.747743254
513,6042584.426124518
1291,1795438.0619787239
2,2, 2, 2, 0,20, 0.00,60.00,Tuesday
10,14620218.6926327
22,5860851.394397255
34,5860851.394397255
46,5860851.394397255
513,6738200.4650301775
1291,1801906.738125197
2,2, 2, 2, 0,21, 0.00,60.00,Tuesday
10,15907318.519241821
22,5788324.826793473
34,5788324.826793473
46,5788324.826793473
513,8112485.546816988
1291,1787248.0505512916
2,2, 2, 2, 0,22, 0.00,60.00,Tuesday
10,18342028.954527624
22,5275040.848512863
34,5275040.848512863
46,5275040.848512863
513,11088606.259768145
1291,1766716.5938940067
2,2, 2, 2, 0,23, 0.00,60.00,Tuesday
10,20829504.27651369
22,4175767.1653783405
34,4175767.1653783405
46,4175767.1653783405
513,14719796.46603268
1291,1732718.3015003125
2,2, 2, 2, 0,24, 0.00,60.00,Tuesday
10,20230493.284308035
22,3228431.3064444675
34,3228431.3064444675
46,3228431.3064444675
513,16808604.874101143
1291,0.0
2,3, 2, 3, 0, 1, 0.00,60.00,Wednesday
10,22589646.207049027
22,2498479.0097388276
34,2498479.0097388276
46,2498479.0097388276
513,18234236.497490328
1291,1666686.7987498313
2,3, 2, 3, 0, 2, 0.00,60.00,Wednesday
10,21893040.07910076
22,2287908.203727021
34,2287908.203727021
46,2287908.203727021
513,19414887.974303704
1291,0.0
2,3, 2, 3, 0, 3, 0.00,60.00,Wednesday
10,22484726.236993592
22,2218387.455766968
34,2218387.455766968
46,2218387.455766968
513,20076094.880156588
1291,0.0
2,3, 2, 3, 0, 4, 0.00,60.00,Wednesday
10,22567181.12985908
22,2167160.80380385
34,2167160.80380385
46,2167160.80380385
513,20209776.42498519
1291,0.0
2,3, 2, 3, 0, 5, 0.00,60.00,Wednesday
10,22385361.27665803
22,2326991.86639299
34,2326991.86639299
46,2326991.86639299
513,19863841.238938488
1291,0.0
2,3, 2, 3, 0, 6, 0.00,60.00,Wednesday
10,24848006.468999572
22,2888368.680950925
34,2888368.680950925
46,2888368.680950925
513,20053260.818356887
1291,1704886.8591983707
2,3, 2, 3, 0, 7, 0.00,60.00,Wednesday
10,25614382.40709128
22,3455726.295687276
34,3455726.295687276
46,3455726.295687276
513,20346576.900748484
1291,1797084.2647577182
2,3, 2, 3, 0, 8, 0.00,60.00,Wednesday
10,25356699.71123587
22,3804342.957438114
34,3804342.957438114
46,3804342.957438114
513,19701832.908745795
1291,1837135.500500348
2,3, 2, 3, 0, 9, 0.00,60.00,Wednesday
10,21961109.85331557
22,3331560.1762823085
34,3331560.1762823085
46,3331560.1762823085
513,16777955.40393834
1291,1845703.401492212
2,3, 2, 3, 0,10, 0.00,60.00,Wednesday
10,18887711.418939
22,3145052.4172653225
34,3145052.4172653225
46,3145052.4172653225
513,12999079.182791956
1291,2739563.31551624
2,3, 2, 3, 0,11, 0.00,60.00,Wednesday
10,15957861.347327646
22,3201316.809840188
34,3201316.809840188
46,3201316.809840188
513,10037654.998169908
1291,2714873.035952068
2,3, 2, 3, 0,12, 0.00,60.00,Wednesday
10,11600968.650555737
22,3245056.7517732778
34,3245056.7517732778
46,3245056.7517732778
513,7343600.629569332
1291,1008294.7658476436
2,3, 2, 3, 0,13, 0.00,60.00,Wednesday
10,8682235.527571417
22,3197289.398662933
34,3197289.398662933
46,3197289.398662933
513,4719203.923719969
1291,761725.7018230347
2,3, 2, 3, 0,14, 0.00,60.00,Wednesday
10,7202482.267239638
22,3143544.016284607
34,3143544.016284607
46,3143544.016284607
513,2308813.640941679
1291,1746108.1066478689
2,3, 2, 3, 0,15, 0.00,60.00,Wednesday
10,5741076.420573842
22,3152610.4832543777
34,3152610.4832543777
46,3152610.4832543777
513,849292.9683000515
1291,1735156.4656539296
2,3, 2, 3, 0,16, 0.00,60.00,Wednesday
10,3726724.889107089
22,3436226.8211706067
34,3436226.8211706067
46,3436226.8211706067
513,283536.12876964617
1291,0.0
2,3, 2, 3, 0,17, 0.00,60.00,Wednesday
10,6282824.114857802
22,4368891.063756271
34,4368891.063756271
46,4368891.063756271
513,154285.71428571438
1291,1744652.3909180171
2,3, 2, 3, 0,18, 0.00,60.00,Wednesday
10,7681397.897718286
22,5514884.4344747625
34,5514884.4344747625
46,5514884.4344747625
513,377099.7804338202
1291,1768527.865309196
2,3, 2, 3, 0,19, 0.00,60.00,Wednesday
10,9843467.631029997
22,5936377.747743254
34,5936377.747743254
46,5936377.747743254
513,1895165.0791683653
1291,1795707.5146182189
2,3, 2, 3, 0,20, 0.00,60.00,Wednesday
10,11334075.066054352
22,5860851.394397255
34,5860851.394397255
46,5860851.394397255
513,3452216.2404493624
1291,1801747.3361276654
2,3, 2, 3, 0,21, 0.00,60.00,Wednesday
10,12442517.092766149
22,5788324.826793473
34,5788324.826793473
46,5788324.826793473
513,4648111.354928013
1291,1786820.8159645936
2,3, 2, 3, 0,22, 0.00,60.00,Wednesday
10,12945416.122809257
22,5275040.848512863
34,5275040.848512863
46,5275040.848512863
513,5691700.440168573
1291,1767009.581775211
2,3, 2, 3, 0,23, 0.00,60.00,Wednesday
10,13335376.065025037
22,4175767.1653783405
34,4175767.1653783405
46,4175767.1653783405
513,7225903.566827546
1291,1732482.9892167952
2,3, 2, 3, 0,24, 0.00,60.00,Wednesday
10,12132432.80362193
22,3228431.3064444675
34,3228431.3064444675
46,3228431.3064444675
513,8710544.393415038
1291,0.0
2,4, 2, 4, 0, 1, 0.00,60.00,Thursday
10,12911985.4950171
22,2498479.0097388276
34,2498479.0097388276
46,2498479.0097388276
513,10223262.584208235
1291,0.0
2,4, 2, 4, 0, 2, 0.00,60.00,Thursday
10,15114584.091081144
22,2287908.203727021
34,2287908.203727021
46,2287908.203727021
513,10983292.084018879
1291,1653139.902265205
2,4, 2, 4, 0, 3, 0.00,60.00,Thursday
10,13395806.435014404
22,2218387.455766968
34,2218387.455766968
46,2218387.455766968
513,10987175.078177398
1291,0.0
2,4, 2, 4, 0, 4, 0.00,60.00,Thursday
10,14891905.798138943
22,2167160.80380385
34,2167160.80380385
46,2167160.80380385
513,12534501.093265057
1291,0.0
2,4, 2, 4, 0, 5, 0.00,60.00,Thursday
10,16097445.236417174
22,2326991.86639299
34,2326991.86639299
46,2326991.86639299
513,13575925.19869763
1291,0.0
2,4, 2, 4, 0, 6, 0.00,60.00,Thursday
10,18951761.927955918
22,2888368.680950925
34,2888368.680950925
46,2888368.680950925
513,14157037.29225938
1291,1704865.844252221
2,4, 2, 4, 0, 7, 0.00,60.00,Thursday
10,19651021.797082454
22,3455726.295687276
34,3455726.295687276
46,3455726.295687276
513,14383063.559106806
1291,1797236.9963905688
2,4, 2, 4, 0, 8, 0.00,60.00,Thursday
10,19365905.450512417
22,3804342.957438114
34,3804342.957438114
46,3804342.957438114
513,13711247.182004534
1291,1836926.9665181611
2,4, 2, 4, 0, 9, 0.00,60.00,Thursday
10,18318464.838399947
22,3331560.1762823085
34,3331560.1762823085
46,3331560.1762823085
513,13135124.486533092
1291,1845889.3039818415
2,4, 2, 4, 0,10, 0.00,60.00,Thursday
10,17480444.59013159
22,3145052.4172653225
34,3145052.4172653225
46,3145052.4172653225
513,12499758.804311704
1291,1831616.865189079
2,4, 2, 4, 0,11, 0.00,60.00,Thursday
10,17009258.346007347
22,3201316.809840188
34,3201316.809840188
46,3201316.809840188
513,11180159.898911698
1291,2623765.133889982
2,4, 2, 4, 0,12, 0.00,60.00,Thursday
10,14927181.21473796
22,3245056.7517732778
34,3245056.7517732778
46,3245056.7517732778
513,10706061.858130466
1291,972046.1014687334
2,4, 2, 4, 0,13, 0.00,60.00,Thursday
10,15471261.98542469
22,3197289.398662933
34,3197289.398662933
46,3197289.398662933
513,10510824.266349243
1291,1759131.8170470314
2,4, 2, 4, 0,14, 0.00,60.00,Thursday
10,14469047.855003199
22,3143544.016284607
34,3143544.016284607
46,3143544.016284607
513,9575515.092220532
1291,1745972.2431325763
2,4, 2, 4, 0,15, 0.00,60.00,Thursday
10,13857818.717994757
22,3152610.4832543777
34,3152610.4832543777
46,3152610.4832543777
513,8966456.549607733
1291,1734735.181767161
2,4, 2, 4, 0,16, 0.00,60.00,Thursday
10,12396309.001679592
22,3436226.8211706067
34,3436226.8211706067
46,3436226.8211706067
513,8953120.241342148
1291,0.0
2,4, 2, 4, 0,17, 0.00,60.00,Thursday
10,14791566.612990197
22,4368891.063756271
34,4368891.063756271
46,4368891.063756271
513,8663216.417456716
1291,1744464.1858794047
2,4, 2, 4, 0,18, 0.00,60.00,Thursday
10,15433020.369890437
22,5514884.4344747625
34,5514884.4344747625
46,5514884.4344747625
513,8128351.0538143385
1291,1768899.0641008273
2,4, 2, 4, 0,19, 0.00,60.00,Thursday
10,16178146.66037545
22,5936377.747743254
34,5936377.747743254
46,5936377.747743254
513,8229961.135650925
1291,1795590.487481108
2,4, 2, 4, 0,20, 0.00,60.00,Thursday
10,16457169.537817802
22,5860851.394397255
34,5860851.394397255
46,5860851.394397255
513,8575161.371837456
1291,1801896.6765030238
2,4, 2, 4, 0,21, 0.00,60.00,Thursday
10,16547477.428733103
22,5788324.826793473
34,5788324.826793473
46,5788324.826793473
513,8752670.197199678
1291,1787222.3096598827
2,4, 2, 4, 0,22, 0.00,60.00,Thursday
10,16375745.32973839
22,5275040.848512863
34,5275040.848512863
46,5275040.848512863
513,9122160.366175469
1291,1766878.8626974467
2,4, 2, 4, 0,23, 0.00,60.00,Thursday
10,16308125.447829565
22,4175767.1653783405
34,4175767.1653783405
46,4175767.1653783405
513,10198322.322298992
1291,1732813.6165498744
2,4, 2, 4, 0,24, 0.00,60.00,Thursday
10,14982585.593095098
22,3228431.3064444675
34,3228431.3064444675
46,3228431.3064444675
513,11560697.182888206
1291,0.0
2,5, 2, 5, 0, 1, 0.00,60.00,Friday
10,15416720.836060755
22,2498479.0097388276
34,2498479.0097388276
46,2498479.0097388276
513,12727997.925251892
1291,0.0
2,5, 2, 5, 0, 2, 0.00,60.00,Friday
10,17542178.113141954
22,2287908.203727021
34,2287908.203727021
46,2287908.203727021
513,13410722.178901
1291,1653303.829443896
2,5, 2, 5, 0, 3, 0.00,60.00,Friday
10,16259126.12964696
22,2218387.455766968
34,2218387.455766968
46,2218387.455766968
513,13850494.772809956
1291,0.0
2,5, 2, 5, 0, 4, 0.00,60.00,Friday
10,15769770.21707924
22,2167160.80380385
34,2167160.80380385
46,2167160.80380385
513,13412365.512205353
1291,0.0
2,5, 2, 5, 0, 5, 0.00,60.00,Friday
10,15593746.34514758
22,2326991.86639299
34,2326991.86639299
46,2326991.86639299
513,13072226.307428036
1291,0.0
2,5, 2, 5, 0, 6, 0.00,60.00,Friday
10,17597714.80006987
22,2888368.680950925
34,2888368.680950925
46,2888368.680950925
513,12802714.66920342
1291,1705141.3394221386
2,5, 2, 5, 0, 7, 0.00,60.00,Friday
10,17861589.78675944
22,3455726.295687276
34,3455726.295687276
46,3455726.295687276
513,12594026.337129386
1291,1796842.208044976
2,5, 2, 5, 0, 8, 0.00,60.00,Friday
10,18562630.645905644
22,3804342.957438114
34,3804342.957438114
46,3804342.957438114
513,12908272.673576452
1291,1836626.6703394686
2,5, 2, 5, 0, 9, 0.00,60.00,Friday
10,18278948.892040152
22,3331560.1762823085
34,3331560.1762823085
46,3331560.1762823085
513,13096003.036877861
1291,1845494.807277274
2,5, 2, 5, 0,10, 0.00,60.00,Friday
10,17756030.030325007
22,3145052.4172653225
34,3145052.4172653225
46,3145052.4172653225
513,12775484.148049638
1291,1831476.9616445638
2,5, 2, 5, 0,11, 0.00,60.00,Friday
10,17138898.598284863
22,3201316.809840188
34,3201316.809840188
46,3201316.809840188
513,12128432.8530527
1291,1805132.4320264938
2,5, 2, 5, 0,12, 0.00,60.00,Friday
10,15232723.343330693
22,3245056.7517732778
34,3245056.7517732778
46,3245056.7517732778
513,10204815.178933127
1291,1778834.9092588057
2,5, 2, 5, 0,13, 0.00,60.00,Friday
10,14069415.134534294
22,3197289.398662933
34,3197289.398662933
46,3197289.398662933
513,9109309.774477277
1291,1758799.458028602
2,5, 2, 5, 0,14, 0.00,60.00,Friday
10,12846896.226925746
22,3143544.016284607
34,3143544.016284607
46,3143544.016284607
513,7953327.887070619
1291,1746007.8202050375
2,5, 2, 5, 0,15, 0.00,60.00,Friday
10,11692114.913022272
22,3152610.4832543777
34,3152610.4832543777
46,3152610.4832543777
513,6800409.062854252
1291,1735078.86354816
2,5, 2, 5, 0,16, 0.00,60.00,Friday
10,9925865.142398808
22,3436226.8211706067
34,3436226.8211706067
46,3436226.8211706067
513,6482676.382061365
1291,0.0
2,5, 2, 5, 0,17, 0.00,60.00,Friday
10,12262219.279898789
22,4368891.063756271
34,4368891.063756271
46,4368891.063756271
513,6133691.976404841
1291,1744641.2938398758
2,5, 2, 5, 0,18, 0.00,60.00,Friday
10,13169341.880002331
22,5514884.4344747625
34,5514884.4344747625
46,5514884.4344747625
513,5864852.087557499
1291,1768719.5404695629
2,5, 2, 5, 0,19, 0.00,60.00,Friday
10,13903968.703595793
22,5936377.747743254
34,5936377.747743254
46,5936377.747743254
513,5956141.781381064
1291,1795231.884971318
2,5, 2, 5, 0,20, 0.00,60.00,Friday
10,14148338.51232744
22,5860851.394397255
34,5860851.394397255
46,5860851.394397255
513,6266650.24027934
1291,1801576.782570775
2,5, 2, 5, 0,21, 0.00,60.00,Friday
10,14412346.981983509
22,5788324.826793473
34,5788324.826793473
46,5788324.826793473
513,6617662.221063625
1291,1787099.839046341
2,5, 2, 5, 0,22, 0.00,60.00,Friday
10,14584323.319676373
22,5275040.848512863
34,5275040.848512863
46,5275040.848512863
513,7330928.785747531
1291,1766688.4330633697
2,5, 2, 5, 0,23, 0.00,60.00,Friday
10,14604070.243109588
22,4175767.1653783405
34,4175767.1653783405
46,4175767.1653783405
513,8494526.651271256
1291,1732554.082857631
2,5, 2, 5, 0,24, 0.00,60.00,Friday