Program Version,EnergyPlus, Version 22.2.0-c249759bad, YMD=2023.05.28 19:21
1,5,Environment Title[],Latitude[deg],Longitude[deg],Time Zone[],Elevation[m]
2,8,Day of Simulation[],Month[],Day of Month[],DST Indicator[1=yes 0=no],Hour[],StartMinute[],EndMinute[],DayType
3,5,Cumulative Day of Simulation[],Month[],Day of Month[],DST Indicator[1=yes 0=no],DayType  ! When Daily Report Variables Requested
4,2,Cumulative Days of Simulation[],Month[]  ! When Monthly Report Variables Requested
5,1,Cumulative Days of Simulation[] ! When Run Period Report Variables Requested
6,1,Calendar Year of Simulation[] ! When Annual Report Variables Requested
7,1,Environment,Site Outdoor Air Drybulb Temperature [C] !Hourly
684,1,LIVING_UNIT1,Zone Air Temperature [C] !Hourly
747,1,ATTIC_UNIT1,Zone Air Temperature [C] !Hourly
10,1,Electricity:Facility [J] !Hourly
22,1,Electricity:Building [J] !Hourly
34,1,Electricity:Zone:LIVING_UNIT1 [J] !Hourly
46,1,Electricity:SpaceType:GENERAL [J] !Hourly
513,1,Electricity:HVAC [J] !Hourly
1291,1,Electricity:Plant [J] !Hourly
End of Data Dictionary
1,DALLAS FORT WORTH INTL AP ANN HTG 99.6% CONDNS DB,  32.90, -97.02,  -6.00, 171.00
2,1, 1,21, 0, 1, 0.00,60.00,WinterDesignDay
7,-6.5
684,22.220044576460086
747,-4.307385980364683
10,30100086.27119138
22,2519341.8750856025
34,2519341.8750856025
46,2519341.8750856025
513,27390500.495035738
1291,0.0
2,1, 1,21, 0, 2, 0.00,60.00,WinterDesignDay
7,-6.5
684,22.220052828784805
747,-4.307751495301799
10,30192447.416245744
22,2300485.626558334
34,2300485.626558334
46,2300485.626558334
513,27701717.888617374
1291,0.0
2,1, 1,21, 0, 3, 0.00,60.00,WinterDesignDay
7,-6.5
684,22.220056888742317
747,-4.308154122746541
10,30269188.047343083
22,2226600.0926204654
34,2226600.0926204654
46,2226600.0926204654
513,27852344.053652585
1291,0.0
2,1, 1,21, 0, 4, 0.00,60.00,WinterDesignDay
7,-6.5
684,22.220058558618515
747,-4.308522695319106
10,30300766.70946701
22,2171740.4070940726
34,2171740.4070940726
46,2171740.4070940726
513,27938782.401302896
1291,0.0
2,1, 1,21, 0, 5, 0.00,60.00,WinterDesignDay
7,-6.5
684,22.220060943493838
747,-4.308804594683926
10,31316603.258710943
22,2335718.210080423
34,2335718.210080423
46,2335718.210080423
513,27889241.02207908
1291,897115.8552248861
2,1, 1,21, 0, 6, 0.00,60.00,WinterDesignDay
7,-6.5
684,22.220063481856354
747,-4.30903159190785
10,31461482.14304524
22,2902111.397117286
34,2902111.397117286
46,2902111.397117286
513,27572761.45690017
1291,785119.1785343933
2,1, 1,21, 0, 7, 0.00,60.00,WinterDesignDay
7,-6.5
684,22.220059115181453
747,-4.309101320155066
10,32551141.597614907
22,3490045.529346395
34,3490045.529346395
46,3490045.529346395
513,27245872.53583957
1291,1800228.5865311401
2,1, 1,21, 0, 8, 0.00,60.00,WinterDesignDay
7,-6.5
684,22.220051688458252
747,-4.309025317869458
10,32901779.188882105
22,3872409.4070758065
34,3872409.4070758065
46,3872409.4070758065
513,27171818.561560005
1291,1844162.8756946805
2,1, 1,21, 0, 9, 0.00,60.00,WinterDesignDay
7,-6.5
684,22.220040420247788
747,-4.30902904407088
10,35074616.146843925
22,3436548.288166884
34,3436548.288166884
46,3436548.288166884
513,27916252.25166603
1291,3715924.735408308
2,1, 1,21, 0,10, 0.00,60.00,WinterDesignDay
7,-6.5
684,22.220051120332272
747,-4.30923835523241
10,33461551.44513586
22,3287629.4627914913
34,3287629.4627914913
46,3287629.4627914913
513,28324326.76628285
1291,1845578.7126960384
2,1, 1,21, 0,11, 0.00,60.00,WinterDesignDay
7,-6.5
684,22.22005817678858
747,-4.309460923971071
10,33575069.54678043
22,3359522.254572048
34,3359522.254572048
46,3359522.254572048
513,28392766.143473953
1291,1818764.6453689435
2,1, 1,21, 0,12, 0.00,60.00,WinterDesignDay
7,-6.5
684,22.220058586872742
747,-4.309628310773767
10,33619589.65263105
22,3405817.7973429887
34,3405817.7973429887
46,3405817.7973429887
513,28419123.709675647
1291,1790631.6422469378
2,1, 1,21, 0,13, 0.00,60.00,WinterDesignDay
7,-6.5
684,22.220058586095774
747,-4.3097437919926
10,33557157.82472522
22,3343416.5845005065
34,3343416.5845005065
46,3343416.5845005065
513,28440599.113057546
1291,1769125.6238016852
2,1, 1,21, 0,14, 0.00,60.00,WinterDesignDay
7,-6.5
684,22.22005924654005
747,-4.309836258922716
10,33480983.462117925
22,3277253.218523652
34,3277253.218523652
46,3277253.218523652
513,28444483.3778368
1291,1755230.362391989
2,1, 1,21, 0,15, 0.00,60.00,WinterDesignDay
7,-6.5
684,22.220059682259578
747,-4.309921765370471
10,32014605.986714743
22,3272159.2094632606
34,3272159.2094632606
46,3272159.2094632606
513,28426536.699786905
1291,311893.5740990943
2,1, 1,21, 0,16, 0.00,60.00,WinterDesignDay
7,-6.5
684,22.2200608329852
747,-4.309969063537911
10,33265442.01951646
22,3549357.552769049
34,3549357.552769049
46,3549357.552769049
513,28283038.263351772
1291,1426084.2642287975
2,1, 1,21, 0,17, 0.00,60.00,WinterDesignDay
7,-6.5
684,22.220062724984828
747,-4.309889839164337
10,33984212.365511976
22,4479188.816479392
34,4479188.816479392
46,4479188.816479392
513,27737751.957966894
1291,1752276.6451678916
2,1, 1,21, 0,18, 0.00,60.00,WinterDesignDay
7,-6.5
684,22.220058608371527
747,-4.309514828409231
10,34212949.37104
22,5624286.233621349
34,5624286.233621349
46,5624286.233621349
513,26791219.598758586
1291,1776557.7211595566
2,1, 1,21, 0,19, 0.00,60.00,WinterDesignDay
7,-6.5
684,22.220050701069827
747,-4.30882493966921
10,33911581.43296579
22,6045788.3062472865
34,6045788.3062472865
46,6045788.3062472865
513,25845449.068617873
1291,1804126.7686004755
2,1, 1,21, 0,20, 0.00,60.00,WinterDesignDay
7,-6.5
684,22.220038609299966
747,-4.308166496719984
10,33555382.6168825
22,5971945.160957614
34,5971945.160957614
46,5971945.160957614
513,25553699.1381527
1291,1810478.222692121
2,1, 1,21, 0,21, 0.00,60.00,WinterDesignDay
7,-6.5
684,22.22003649123747
747,-4.307737849656001
10,33359461.366864286
22,5899533.255808762
34,5899533.255808762
46,5899533.255808762
513,25445027.342495717
1291,1795640.6734797354
2,1, 1,21, 0,22, 0.00,60.00,WinterDesignDay
7,-6.5
684,22.22003338635582
747,-4.307395191744541
10,32934392.611959465
22,5386254.039457358
34,5386254.039457358
46,5386254.039457358
513,25561896.957382
1291,1774576.3627674843
2,1, 1,21, 0,23, 0.00,60.00,WinterDesignDay
7,-6.5
684,22.2200298060162
747,-4.307170620778677
10,32371110.22225202
22,4262786.538241955
34,4262786.538241955
46,4262786.538241955
513,26169685.446903396
1291,1737415.8935043116
2,1, 1,21, 0,24, 0.00,60.00,WinterDesignDay
7,-6.5
684,22.22003643006951
747,-4.3071704765769985
10,30299705.575174626
22,3276627.552965166
34,3276627.552965166
46,3276627.552965166
513,26829620.918447033
1291,0.0
1,DALLAS FORT WORTH INTL AP ANN CLG .4% CONDNS DB=>MWB,  32.90, -97.02,  -6.00, 171.00
2,1, 8,21, 0, 1, 0.00,60.00,SummerDesignDay
7,28.595
684,23.888404985254656
747,27.758324340286492
10,5817152.470283794
22,2519341.8750856025
34,2519341.8750856025
46,2519341.8750856025
513,3107566.6941281534
1291,0.0
2,1, 8,21, 0, 2, 0.00,60.00,SummerDesignDay
7,28.063333333333333
684,23.888540710000928
747,27.25041364062598
10,5218757.804381809
22,2300485.626558334
34,2300485.626558334
46,2300485.626558334
513,2728028.2767534377
1291,0.0
2,1, 8,21, 0, 3, 0.00,60.00,SummerDesignDay
7,27.6875
684,23.888614732062564
747,26.883500952673156
10,4880700.679939045
22,2226600.0926204654
34,2226600.0926204654
46,2226600.0926204654
513,2463856.6862485413
1291,0.0
2,1, 8,21, 0, 4, 0.00,60.00,SummerDesignDay
7,27.357499999999998
684,23.888564139319403
747,26.571120423330104
10,4618394.565154765
22,2171740.4070940726
34,2171740.4070940726
46,2171740.4070940726
513,2256410.2569906544
1291,0.0
2,1, 8,21, 0, 5, 0.00,60.00,SummerDesignDay
7,27.091666666666665
684,23.88863414414371
747,26.30965092621685
10,4655779.653240971
22,2335718.210080423
34,2335718.210080423
46,2335718.210080423
513,2125533.271833996
1291,0.0
2,1, 8,21, 0, 6, 0.00,60.00,SummerDesignDay
7,27.128333333333334
684,23.88903215585066
747,26.28490110104417
10,6920247.332622566
22,2902111.397117286
34,2902111.397117286
46,2902111.397117286
513,2142277.091249049
1291,1674368.7337628424
2,1, 8,21, 0, 7, 0.00,60.00,SummerDesignDay
7,27.66916666666667
684,23.889434223404933
747,26.854455931219178
10,6219437.880974773
22,3490045.529346395
34,3490045.529346395
46,3490045.529346395
513,2714397.4057305767
1291,0.0
2,1, 8,21, 0, 8, 0.00,60.00,SummerDesignDay
7,29.080833333333334
684,23.8889558477594
747,28.68493709993031
10,9357839.428108338
22,3872409.4070758065
34,3872409.4070758065
46,3872409.4070758065
513,3726025.317727738
1291,1746016.3587531848
2,1, 8,21, 0, 9, 0.00,60.00,SummerDesignDay
7,31.079166666666666
684,23.888951514470268
747,31.66655375427412
10,9695800.868006455
22,3436548.288166884
34,3436548.288166884
46,3436548.288166884
513,4498750.080889021
1291,1754611.6273478419
2,1, 8,21, 0,10, 0.00,60.00,SummerDesignDay
7,33.04083333333333
684,23.889346546519842
747,34.8360157012676
10,9447699.561891
22,3287629.4627914913
34,3287629.4627914913
46,3287629.4627914913
513,5316613.845450377
1291,839439.7502836505
2,1, 8,21, 0,11, 0.00,60.00,SummerDesignDay
7,34.782500000000006
684,23.889329377216573
747,37.61768185641295
10,10385235.721112683
22,3359522.254572048
34,3359522.254572048
46,3359522.254572048
513,6118472.381357823
1291,903224.58181733
2,1, 8,21, 0,12, 0.00,60.00,SummerDesignDay
7,36.11166666666667
684,23.89304024231667
747,39.73291297093282
10,11821705.527679589
22,3405817.7973429887
34,3405817.7973429887
46,3405817.7973429887
513,6689984.946629157
1291,1721886.2803419589
2,1, 8,21, 0,13, 0.00,60.00,SummerDesignDay
7,37.083333333333336
684,24.01860416014172
747,41.120778865442354
10,10231751.458346609
22,3343416.5845005065
34,3343416.5845005065
46,3343416.5845005065
513,6884318.37048062
1291,0.0
2,1, 8,21, 0,14, 0.00,60.00,SummerDesignDay
7,37.770833333333336
684,24.4049084489797
747,41.841577958623475
10,11925015.948904615
22,3277253.218523652
34,3277253.218523652
46,3277253.218523652
513,6940684.2945551695
1291,1703061.9324603109
2,1, 8,21, 0,15, 0.00,60.00,SummerDesignDay
7,38.0
684,24.907425420652075
747,41.789273709406615
10,10248670.280334782
22,3272159.2094632606
34,3272159.2094632606
46,3272159.2094632606
513,6972494.567506039
1291,0.0
2,1, 8,21, 0,16, 0.00,60.00,SummerDesignDay
7,37.615
684,25.32931913922764
747,40.81200980961492
10,12211274.096524244
22,3549357.552769049
34,3549357.552769049
46,3549357.552769049
513,6962764.04429757
1291,1692190.5602907895
2,1, 8,21, 0,17, 0.00,60.00,SummerDesignDay
7,36.82666666666667
684,25.57792040030655
747,39.07812338081203
10,11413781.963035414
22,4479188.816479392
34,4479188.816479392
46,4479188.816479392
513,6919598.200658221
1291,0.0
2,1, 8,21, 0,18, 0.00,60.00,SummerDesignDay
7,35.818333333333335
684,25.62774051552643
747,36.86536805964991
10,14212908.449391657
22,5624286.233621349
34,5624286.233621349
46,5624286.233621349
513,6855551.071226219
1291,1712185.32704358
2,1, 8,21, 0,19, 0.00,60.00,SummerDesignDay
7,34.3975
684,25.293007360840864
747,34.286247158901766
10,13594678.670183305
22,6045788.3062472865
34,6045788.3062472865
46,6045788.3062472865
513,6753332.914745231
1291,579340.1596906267
2,1, 8,21, 0,20, 0.00,60.00,SummerDesignDay
7,33.00416666666666
684,24.508292750564845
747,32.08353693411114
10,13977922.133151773
22,5971945.160957614
34,5971945.160957614
46,5971945.160957614
513,6636584.223941332
1291,1150132.6531727565
2,1, 8,21, 0,21, 0.00,60.00,SummerDesignDay
7,31.9225
684,23.93529385598985
747,30.776537642589833
10,14028323.88774903
22,5899533.255808762
34,5899533.255808762
46,5899533.255808762
513,6186197.089481937
1291,1723333.4473782608
2,1, 8,21, 0,22, 0.00,60.00,SummerDesignDay
7,30.9325
684,23.889520170036075
747,29.867581673882636
10,10742487.81340298
22,5386254.039457358
34,5386254.039457358
46,5386254.039457358
513,5144568.521593007
1291,0.0
2,1, 8,21, 0,23, 0.00,60.00,SummerDesignDay
7,30.07083333333333
684,23.888640527372697
747,29.089257942764856
10,10477219.19865609
22,4262786.538241955
34,4262786.538241955
46,4262786.538241955
513,4321085.839846869
1291,1692124.4769649068
2,1, 8,21, 0,24, 0.00,60.00,SummerDesignDay
7,29.30083333333333
684,23.888452203596056
747,28.4000419468944
10,7121458.722865741
22,3276627.552965166
34,3276627.552965166
46,3276627.552965166
513,3651374.06613815
1291,0.0
1,ANNUAL,  32.90, -97.02,  -6.00, 171.00
2,1, 2, 1, 0, 1, 0.00,60.00,Monday
7,5.316666666666666
684,22.222323829805504
747,8.025038481841799
10,12011415.937202502
22,2498479.0097388276
34,2498479.0097388276
46,2498479.0097388276
513,9322693.026393637
1291,0.0
2,1, 2, 1, 0, 2, 0.00,60.00,Monday
7,3.608333333333333
684,22.22241861230862
747,6.143008844845707
10,14294097.102103751
22,2287908.203727021
34,2287908.203727021
46,2287908.203727021
513,11815944.997306693
1291,0.0
2,1, 2, 1, 0, 3, 0.00,60.00,Monday
7,3.4
684,22.222428956448766
747,5.586101209302865
10,15180669.444203556
22,2218387.455766968
34,2218387.455766968
46,2218387.455766968
513,12772038.08736655
1291,0.0
2,1, 2, 1, 0, 4, 0.00,60.00,Monday
7,3.4
684,22.222415281659448
747,5.385565050742733
10,16014341.502978392
22,2167160.80380385
34,2167160.80380385
46,2167160.80380385
513,13656936.798104504
1291,0.0
2,1, 2, 1, 0, 5, 0.00,60.00,Monday
7,3.108333333333333
684,22.222407199473015
747,4.925948580503877
10,17225459.14131002
22,2326991.86639299
34,2326991.86639299
46,2326991.86639299
513,14703939.103590477
1291,0.0
2,1, 2, 1, 0, 6, 0.00,60.00,Monday
7,2.5500000000000003
684,22.22241179738496
747,4.411461535024376
10,19871883.970195673
22,2888368.680950925
34,2888368.680950925
46,2888368.680950925
513,15076920.994203966
1291,1705104.1845473927
2,1, 2, 1, 0, 7, 0.00,60.00,Monday
7,2.0083333333333333
684,22.222413493802744
747,4.04381552008252
10,20493787.157755796
22,3455726.295687276
34,3455726.295687276
46,3455726.295687276
513,15226277.988633983
1291,1796787.927536733
2,1, 2, 1, 0, 8, 0.00,60.00,Monday
7,1.8
684,22.250867359507193
747,3.572549729621663
10,12488724.600735543
22,3804342.957438114
34,3804342.957438114
46,3804342.957438114
513,6834316.218202396
1291,1836677.0805434277
2,1, 2, 1, 0, 9, 0.00,60.00,Monday
7,3.025
684,22.222426402641343
747,6.683316804794077
10,11808903.768853443
22,3331560.1762823085
34,3331560.1762823085
46,3331560.1762823085
513,5848479.944036655
1291,2622972.7769317715
2,1, 2, 1, 0,10, 0.00,60.00,Monday
7,4.95
684,22.22236200282046
747,9.795367091463156
10,10350806.405342469
22,3145052.4172653225
34,3145052.4172653225
46,3145052.4172653225
513,4310148.688967267
1291,2891588.7957443977
2,1, 2, 1, 0,11, 0.00,60.00,Monday
7,7.2749999999999995
684,22.192902195858466
747,12.273289106278552
10,6796863.114949983
22,3201316.809840188
34,3201316.809840188
46,3201316.809840188
513,1786121.1279020184
1291,1805408.6738422934
2,1, 2, 1, 0,12, 0.00,60.00,Monday
7,8.983333333333333
684,22.20616558826765
747,14.750271066082048
10,5334213.877690647
22,3245056.7517732778
34,3245056.7517732778
46,3245056.7517732778
513,306019.6891586396
1291,1779120.9333932465
2,1, 2, 1, 0,13, 0.00,60.00,Monday
7,11.091666666666669
684,22.370037397604772
747,16.72930516417648
10,4759048.916244803
22,3197289.398662933
34,3197289.398662933
46,3197289.398662933
513,154285.71428571438
1291,1403457.2999306738
2,1, 2, 1, 0,14, 0.00,60.00,Monday
7,13.233333333333334
684,22.796134540996814
747,17.23430974749218
10,3654460.9738734695
22,3143544.016284607
34,3143544.016284607
46,3143544.016284607
513,154285.71428571438
1291,352614.7399376656
2,1, 2, 1, 0,15, 0.00,60.00,Monday
7,14.191666666666668
684,23.33370005692089
747,18.315770501543685
10,5045345.526720776
22,3152610.4832543777
34,3152610.4832543777
46,3152610.4832543777
513,154285.71428571438
1291,1734432.8258152017
2,1, 2, 1, 0,16, 0.00,60.00,Monday
7,14.75
684,23.56129030861139
747,17.901484426193353
10,5326762.77160798
22,3436226.8211706067
34,3436226.8211706067
46,3436226.8211706067
513,154285.71428571438
1291,1729288.2969848237
2,1, 2, 1, 0,17, 0.00,60.00,Monday
7,14.358333333333334
684,23.2172600095306
747,15.677257758004833
10,4538171.723939787
22,4368891.063756271
34,4368891.063756271
46,4368891.063756271
513,154285.71428571438
1291,0.0
2,1, 2, 1, 0,18, 0.00,60.00,Monday
7,12.033333333333333
684,22.789523948399477
747,13.025650864006671
10,7458612.659301592
22,5514884.4344747625
34,5514884.4344747625
46,5514884.4344747625
513,154285.71428571438
1291,1768556.6930406063
2,1, 2, 1, 0,19, 0.00,60.00,Monday
7,10.291666666666666
684,22.370111088807917
747,10.49677595581408
10,8102333.067541895
22,5936377.747743254
34,5936377.747743254
46,5936377.747743254
513,154285.71428571438
1291,1795452.3160127702
2,1, 2, 1, 0,20, 0.00,60.00,Monday
7,9.65
684,22.192528495757966
747,10.455776038721575
10,9058864.247854438
22,5860851.394397255
34,5860851.394397255
46,5860851.394397255
513,1176960.113225032
1291,1801792.6451520808
2,1, 2, 1, 0,21, 0.00,60.00,Monday
7,8.816666666666666
684,22.20166912021349
747,9.69051827821612
10,10178913.335539382
22,5788324.826793473
34,5788324.826793473
46,5788324.826793473
513,2384347.7966438443
1291,1786980.6170219942
2,1, 2, 1, 0,22, 0.00,60.00,Monday
7,8.691666666666666
684,22.22245750236813
747,10.426521970352372
10,10676281.401570113
22,5275040.848512863
34,5275040.848512863
46,5275040.848512863
513,3422857.5429877676
1291,1766717.7577168734
2,1, 2, 1, 0,23, 0.00,60.00,Monday
7,7.033333333333335
684,22.22241758104639
747,10.593542420247191
10,11485368.035450146
22,4175767.1653783405
34,4175767.1653783405
46,4175767.1653783405
513,5375515.21062196
1291,1732863.3158474874
2,1, 2, 1, 0,24, 0.00,60.00,Monday
7,6.633333333333333
684,22.222368132647357
747,9.914836733904094
10,10443659.436375767
22,3228431.3064444675
34,3228431.3064444675
46,3228431.3064444675
513,7021771.026168877
1291,0.0
2,2, 2, 2, 0, 1, 0.00,60.00,Tuesday
7,6.658333333333334
684,22.22268717253588
747,10.459158056756179
10,12401541.164131317
22,2498479.0097388276
34,2498479.0097388276
46,2498479.0097388276
513,8046447.038846356
1291,1666371.2144760955
2,2, 2, 2, 0, 2, 0.00,60.00,Tuesday
7,6.2
684,22.223028901607638
747,10.357699743879543
10,11461127.523924123
22,2287908.203727021
34,2287908.203727021
46,2287908.203727021
513,8982975.419127064
1291,0.0
2,2, 2, 2, 0, 3, 0.00,60.00,Tuesday
7,5.1499999999999995
684,22.223158440432673
747,8.994935345846416
10,12694320.69374377
22,2218387.455766968
34,2218387.455766968
46,2218387.455766968
513,10285689.336906763
1291,0.0
2,2, 2, 2, 0, 4, 0.00,60.00,Tuesday
7,5.158333333333334
684,22.22273170745483
747,9.240180696770894
10,12786963.55964744
22,2167160.80380385
34,2167160.80380385
46,2167160.80380385
513,10429558.854773553
1291,0.0
2,2, 2, 2, 0, 5, 0.00,60.00,Tuesday
7,5.991666666666667
684,22.22260275624328
747,8.939480228650089
10,13045864.417751474
22,2326991.86639299
34,2326991.86639299
46,2326991.86639299
513,10524344.380031934
1291,0.0
2,2, 2, 2, 0, 6, 0.00,60.00,Tuesday
7,5.5
684,22.222388383413062
747,8.358667201726456
10,15744235.474490672
22,2888368.680950925
34,2888368.680950925
46,2888368.680950925
513,10949507.665485641
1291,1704869.017560718
2,2, 2, 2, 0, 7, 0.00,60.00,Tuesday
7,5.408333333333334
684,22.222405267658072
747,7.814454149023146
10,15933981.46096592
22,3455726.295687276
34,3455726.295687276
46,3455726.295687276
513,10666022.663647298
1291,1797237.555733549
2,2, 2, 2, 0, 8, 0.00,60.00,Tuesday
7,4.941666666666666
684,22.222474354901106
747,7.7062362274276905
10,12598388.477585904
22,3804342.957438114
34,3804342.957438114
46,3804342.957438114
513,6943978.567214638
1291,1836678.6083815433
2,2, 2, 2, 0, 9, 0.00,60.00,Tuesday
7,6.733333333333333
684,22.22239406102644
747,11.319928640466612
10,8956066.426681299
22,3331560.1762823085
34,3331560.1762823085
46,3331560.1762823085
513,3772926.8651470076
1291,1845688.5136492741
2,2, 2, 2, 0,10, 0.00,60.00,Tuesday
7,9.333333333333334
684,22.215709629519605
747,13.979354408757596
10,8910084.513496071
22,3145052.4172653225
34,3145052.4172653225
46,3145052.4172653225
513,2098182.6347526317
1291,3662832.958112634
2,2, 2, 2, 0,11, 0.00,60.00,Tuesday
7,11.341666666666667
684,22.234275678718088
747,15.00534981671104
10,5293395.653177147
22,3201316.809840188
34,3201316.809840188
46,3201316.809840188
513,282789.0831690321
1291,1805273.2568024446
2,2, 2, 2, 0,12, 0.00,60.00,Tuesday
7,13.233333333333334
684,22.551077815019188
747,17.424179509962862
10,5182307.564447499
22,3245056.7517732778
34,3245056.7517732778
46,3245056.7517732778
513,154285.71428571438
1291,1778948.5950230244
2,2, 2, 2, 0,13, 0.00,60.00,Tuesday
7,14.541666666666666
684,22.912927916938017
747,18.50767581049929
10,3355591.616314129
22,3197289.398662933
34,3197289.398662933
46,3197289.398662933
513,154285.71428571438
1291,0.0
2,2, 2, 2, 0,14, 0.00,60.00,Tuesday
7,16.05
684,23.361881579309085
747,19.206171453586876
10,5047555.870462636
22,3143544.016284607
34,3143544.016284607
46,3143544.016284607
513,154285.71428571438
1291,1745709.6365268333
2,2, 2, 2, 0,15, 0.00,60.00,Tuesday
7,17.441666666666666
684,23.845331798022425
747,19.785232872263734
10,5108787.495601077
22,3152610.4832543777
34,3152610.4832543777
46,3152610.4832543777
513,217978.15475862374
1291,1734182.3542225936
2,2, 2, 2, 0,16, 0.00,60.00,Tuesday
7,17.55
684,23.893531238713496
747,18.82056441454142
10,5376314.110890258
22,3436226.8211706067
34,3436226.8211706067
46,3436226.8211706067
513,203937.6257956182
1291,1729187.7247571966
2,2, 2, 2, 0,17, 0.00,60.00,Tuesday
7,17.3
684,23.78346391096069
747,17.668586980031215
10,4540796.061165867
22,4368891.063756271
34,4368891.063756271
46,4368891.063756271
513,156910.05151179485
1291,0.0
2,2, 2, 2, 0,18, 0.00,60.00,Tuesday
7,15.958333333333334
684,23.472441345773984
747,16.130978075997508
10,7458044.865750922
22,5514884.4344747625
34,5514884.4344747625
46,5514884.4344747625
513,154285.71428571438
1291,1767988.899489936
2,2, 2, 2, 0,19, 0.00,60.00,Tuesday
7,13.775
684,23.0578998451539
747,14.001969081124782
10,8101856.534876019
22,5936377.747743254
34,5936377.747743254
46,5936377.747743254
513,154285.71428571438
1291,1794975.7833468937
2,2, 2, 2, 0,20, 0.00,60.00,Tuesday
7,11.908333333333333
684,22.584017672439057
747,12.187333833507523
10,8035829.238329809
22,5860851.394397255
34,5860851.394397255
46,5860851.394397255
513,154285.71428571438
1291,1801432.0345667703
2,2, 2, 2, 0,21, 0.00,60.00,Tuesday
7,11.200000000000001
684,22.189805864078394
747,11.59257373802811
10,8649406.66225046
22,5788324.826793473
34,5788324.826793473
46,5788324.826793473
513,854643.4510926958
1291,1787178.289284221
2,2, 2, 2, 0,22, 0.00,60.00,Tuesday
7,10.5
684,22.194774585854333
747,11.363969740985747
10,9896910.36917829
22,5275040.848512863
34,5275040.848512863
46,5275040.848512863
513,2643466.2947605923
1291,1766737.9735522221
2,2, 2, 2, 0,23, 0.00,60.00,Tuesday
7,9.358333333333334
684,22.22244718931815
747,10.915668045019501
10,10222793.682246875
22,4175767.1653783405
34,4175767.1653783405
46,4175767.1653783405
513,4112951.382678795
1291,1732852.7905873829
2,2, 2, 2, 0,24, 0.00,60.00,Tuesday
7,8.316666666666666
684,22.222432983123213
747,10.100702015058117
10,9242866.70870135
22,3228431.3064444675
34,3228431.3064444675
46,3228431.3064444675
513,5820978.298494458
1291,0.0
2,3, 2, 3, 0, 1, 0.00,60.00,Wednesday
7,7.55
684,22.222428491279572
747,9.25102006851847
10,11913242.097917357
22,2498479.0097388276
34,2498479.0097388276
46,2498479.0097388276
513,7557821.825187846
1291,1666697.3619206464
2,3, 2, 3, 0, 2, 0.00,60.00,Wednesday
7,7.008333333333333
684,22.222420988000902
747,8.77642097447849
10,11204569.303555865
22,2287908.203727021
34,2287908.203727021
46,2287908.203727021
513,8726417.198758807
1291,0.0
2,3, 2, 3, 0, 3, 0.00,60.00,Wednesday
7,6.45
684,22.222414993694255
747,8.35422067408138
10,12035606.830803247
22,2218387.455766968
34,2218387.455766968
46,2218387.455766968
513,9626975.47396624
1291,0.0
2,3, 2, 3, 0, 4, 0.00,60.00,Wednesday
7,5.5
684,22.22241849309272
747,7.6054301835355345
10,12854884.196952429
22,2167160.80380385
34,2167160.80380385
46,2167160.80380385
513,10497479.49207854
1291,0.0
2,3, 2, 3, 0, 5, 0.00,60.00,Wednesday
7,5.0
684,22.2224213330846
747,7.08752733294513
10,13530588.935560156
22,2326991.86639299
34,2326991.86639299
46,2326991.86639299
513,11009068.897840612
1291,0.0
2,3, 2, 3, 0, 6, 0.00,60.00,Wednesday
7,4.3583333333333325
684,22.22242130556388
747,6.6591906933570115
10,16270591.840663897
22,2888368.680950925
34,2888368.680950925
46,2888368.680950925
513,11475528.158649404
1291,1705204.8905701798
2,3, 2, 3, 0, 7, 0.00,60.00,Wednesday
7,4.191666666666666
684,22.222420903498772
747,6.621704574372488
10,16781236.46025793
22,3455726.295687276
34,3455726.295687276
46,3455726.295687276
513,11513187.313202232
1291,1797327.9054706218
2,3, 2, 3, 0, 8, 0.00,60.00,Wednesday
7,5.8
684,22.222418949795202
747,7.723058093174489
10,14880320.08455617
22,3804342.957438114
34,3804342.957438114
46,3804342.957438114
513,9225739.743841212
1291,1836849.038725235
2,3, 2, 3, 0, 9, 0.00,60.00,Wednesday
7,8.666666666666666
684,22.222412587380088
747,11.240839443698212
10,9851350.413302653
22,3331560.1762823085
34,3331560.1762823085
46,3331560.1762823085
513,4668141.285579393
1291,1845758.0798382452
2,3, 2, 3, 0,10, 0.00,60.00,Wednesday
7,11.691666666666668
684,22.222885945805036
747,14.150845993404381
10,7863261.988532741
22,3145052.4172653225
34,3145052.4172653225
46,3145052.4172653225
513,2521984.6432497427
1291,2192208.424652193
2,3, 2, 3, 0,11, 0.00,60.00,Wednesday
7,14.533333333333333
684,22.254944850102273
747,16.021502234875793
10,6635406.990862378
22,3201316.809840188
34,3201316.809840188
46,3201316.809840188
513,290721.78340267355
1291,3139351.8942540344
2,3, 2, 3, 0,12, 0.00,60.00,Wednesday
7,16.983333333333334
684,22.781093744219703
747,18.614912971337006
10,3889039.4684039825
22,3245056.7517732778
34,3245056.7517732778
46,3245056.7517732778
513,154285.71428571438
1291,485680.49897950835
2,3, 2, 3, 0,13, 0.00,60.00,Wednesday
7,18.775000000000002
684,23.3168540637441
747,20.089227536253468
10,4746320.631143582
22,3197289.398662933
34,3197289.398662933
46,3197289.398662933
513,154285.71428571438
1291,1390729.014829453
2,3, 2, 3, 0,14, 0.00,60.00,Wednesday
7,19.75
684,23.82214071713736
747,20.95596974858264
10,5218659.40981405
22,3143544.016284607
34,3143544.016284607
46,3143544.016284607
513,325608.4248273927
1291,1745490.4653365684
2,3, 2, 3, 0,15, 0.00,60.00,Wednesday
7,20.700000000000003
684,23.89010136578263
747,21.598314195318192
10,5659498.336108948
22,3152610.4832543777
34,3152610.4832543777
46,3152610.4832543777
513,768499.5741292877
1291,1734371.7753598006
2,3, 2, 3, 0,16, 0.00,60.00,Wednesday
7,21.55
684,23.89095240054517
747,21.93042456956694
10,4233528.952452829
22,3436226.8211706067
34,3436226.8211706067
46,3436226.8211706067
513,790340.1921153867
1291,0.0
2,3, 2, 3, 0,17, 0.00,60.00,Wednesday
7,21.450000000000003
684,23.886276739425103
747,21.598298908624965
10,6685063.216591314
22,4368891.063756271
34,4368891.063756271
46,4368891.063756271
513,557270.0048701696
1291,1743907.2020670716
2,3, 2, 3, 0,18, 0.00,60.00,Wednesday
7,20.5
684,23.88472865656125
747,20.581201512393168
10,7710451.126985577
22,5514884.4344747625
34,5514884.4344747625
46,5514884.4344747625
513,406581.366694586
1291,1768099.508315719
2,3, 2, 3, 0,19, 0.00,60.00,Wednesday
7,19.358333333333334
684,23.89372047590344
747,19.447986036843677
10,8337541.124509769
22,5936377.747743254
34,5936377.747743254
46,5936377.747743254
513,390073.14624964795
1291,1794872.9410167076
2,3, 2, 3, 0,20, 0.00,60.00,Wednesday
7,18.316666666666663
684,23.880835395924333
747,18.396697701388376
10,8117662.6344346395
22,5860851.394397255
34,5860851.394397255
46,5860851.394397255
513,236376.18561078928
1291,1801174.9593465256
2,3, 2, 3, 0,21, 0.00,60.00,Wednesday
7,17.55
684,23.689901092533272
747,17.558084859800438
10,7948422.928024027
22,5788324.826793473
34,5788324.826793473
46,5788324.826793473
513,154285.71428571438
1291,1786552.291864769
2,3, 2, 3, 0,22, 0.00,60.00,Wednesday
7,17.008333333333333
684,23.293893919767427
747,16.96859121703377
10,7407396.324218541
22,5275040.848512863
34,5275040.848512863
46,5275040.848512863
513,154285.71428571438
1291,1766404.509067353
2,3, 2, 3, 0,23, 0.00,60.00,Wednesday
7,16.45
684,22.76688900639702
747,16.43011252730778
10,6263898.363219355
22,4175767.1653783405
34,4175767.1653783405
46,4175767.1653783405
513,154285.71428571438
1291,1732623.139952943
2,3, 2, 3, 0,24, 0.00,60.00,Wednesday
7,16.2
684,22.258813923511962
747,16.380103671424607
10,4236807.781950718
22,3228431.3064444675
34,3228431.3064444675
46,3228431.3064444675
513,814919.3717438264
1291,0.0
2,4, 2, 4, 0, 1, 0.00,60.00,Thursday
7,15.908333333333333
684,22.223154269325647
747,16.54485295031795
10,4916519.027512082
22,2498479.0097388276
34,2498479.0097388276
46,2498479.0097388276
513,2227796.1167032165
1291,0.0
2,4, 2, 4, 0, 2, 0.00,60.00,Thursday
7,15.700000000000001
684,22.223112876638808
747,16.352257524598503
10,7127560.816362053
22,2287908.203727021