Program Version,EnergyPlus, Version 22.2.0-c249759bad, YMD=2023.05.28 19:21
1,5,Environment Title[],Latitude[deg],Longitude[deg],Time Zone[],Elevation[m]
2,8,Day of Simulation[],Month[],Day of Month[],DST Indicator[1=yes 0=no],Hour[],StartMinute[],EndMinute[],DayType
3,5,Cumulative Day of Simulation[],Month[],Day of Month[],DST Indicator[1=yes 0=no],DayType  ! When Daily Meters Requested
4,2,Cumulative Days of Simulation[],Month[]  ! When Monthly Meters Requested
5,1,Cumulative Days of Simulation[] ! When Run Period Meters Requested
6,1,Calendar Year of Simulation[] ! When Annual Meters Requested
10,1,Electricity:Facility [J] !Hourly
22,1,Electricity:Building [J] !Hourly
34,1,Electricity:Zone:LIVING_UNIT1 [J] !Hourly
46,1,Electricity:SpaceType:GENERAL [J] !Hourly
513,1,Electricity:HVAC [J] !Hourly
1291,1,Electricity:Plant [J] !Hourly
End of Data Dictionary
1,DALLAS FORT WORTH INTL AP ANN HTG 99.6% CONDNS DB,  32.90, -97.02,  -6.00, 171.00
2,1, 1,21, 0, 1, 0.00,60.00,WinterDesignDay
10,30100086.27119138
22,2519341.8750856025
34,2519341.8750856025
46,2519341.8750856025
513,27390500.495035738
1291,0.0
2,1, 1,21, 0, 2, 0.00,60.00,WinterDesignDay
10,30192447.416245744
22,2300485.626558334
34,2300485.626558334
46,2300485.626558334
513,27701717.888617374
1291,0.0
2,1, 1,21, 0, 3, 0.00,60.00,WinterDesignDay
10,30269188.047343083
22,2226600.0926204654
34,2226600.0926204654
46,2226600.0926204654
513,27852344.053652585
1291,0.0
2,1, 1,21, 0, 4, 0.00,60.00,WinterDesignDay
10,30300766.70946701
22,2171740.4070940726
34,2171740.4070940726
46,2171740.4070940726
513,27938782.401302896
1291,0.0
2,1, 1,21, 0, 5, 0.00,60.00,WinterDesignDay
10,31316603.258710943
22,2335718.210080423
34,2335718.210080423
46,2335718.210080423
513,27889241.02207908
1291,897115.8552248861
2,1, 1,21, 0, 6, 0.00,60.00,WinterDesignDay
10,31461482.14304524
22,2902111.397117286
34,2902111.397117286
46,2902111.397117286
513,27572761.45690017
1291,785119.1785343933
2,1, 1,21, 0, 7, 0.00,60.00,WinterDesignDay
10,32551141.597614907
22,3490045.529346395
34,3490045.529346395
46,3490045.529346395
513,27245872.53583957
1291,1800228.5865311401
2,1, 1,21, 0, 8, 0.00,60.00,WinterDesignDay
10,32901779.188882105
22,3872409.4070758065
34,3872409.4070758065
46,3872409.4070758065
513,27171818.561560005
1291,1844162.8756946805
2,1, 1,21, 0, 9, 0.00,60.00,WinterDesignDay
10,35074616.146843925
22,3436548.288166884
34,3436548.288166884
46,3436548.288166884
513,27916252.25166603
1291,3715924.735408308
2,1, 1,21, 0,10, 0.00,60.00,WinterDesignDay
10,33461551.44513586
22,3287629.4627914913
34,3287629.4627914913
46,3287629.4627914913
513,28324326.76628285
1291,1845578.7126960384
2,1, 1,21, 0,11, 0.00,60.00,WinterDesignDay
10,33575069.54678043
22,3359522.254572048
34,3359522.254572048
46,3359522.254572048
513,28392766.143473953
1291,1818764.6453689435
2,1, 1,21, 0,12, 0.00,60.00,WinterDesignDay
10,33619589.65263105
22,3405817.7973429887
34,3405817.7973429887
46,3405817.7973429887
513,28419123.709675647
1291,1790631.6422469378
2,1, 1,21, 0,13, 0.00,60.00,WinterDesignDay
10,33557157.82472522
22,3343416.5845005065
34,3343416.5845005065
46,3343416.5845005065
513,28440599.113057546
1291,1769125.6238016852
2,1, 1,21, 0,14, 0.00,60.00,WinterDesignDay
10,33480983.462117925
22,3277253.218523652
34,3277253.218523652
46,3277253.218523652
513,28444483.3778368
1291,1755230.362391989
2,1, 1,21, 0,15, 0.00,60.00,WinterDesignDay
10,32014605.986714743
22,3272159.2094632606
34,3272159.2094632606
46,3272159.2094632606
513,28426536.699786905
1291,311893.5740990943
2,1, 1,21, 0,16, 0.00,60.00,WinterDesignDay
10,33265442.01951646
22,3549357.552769049
34,3549357.552769049
46,3549357.552769049
513,28283038.263351772
1291,1426084.2642287975
2,1, 1,21, 0,17, 0.00,60.00,WinterDesignDay
10,33984212.365511976
22,4479188.816479392
34,4479188.816479392
46,4479188.816479392
513,27737751.957966894
1291,1752276.6451678916
2,1, 1,21, 0,18, 0.00,60.00,WinterDesignDay
10,34212949.37104
22,5624286.233621349
34,5624286.233621349
46,5624286.233621349
513,26791219.598758586
1291,1776557.7211595566
2,1, 1,21, 0,19, 0.00,60.00,WinterDesignDay
10,33911581.43296579
22,6045788.3062472865
34,6045788.3062472865
46,6045788.3062472865
513,25845449.068617873
1291,1804126.7686004755
2,1, 1,21, 0,20, 0.00,60.00,WinterDesignDay
10,33555382.6168825
22,5971945.160957614
34,5971945.160957614
46,5971945.160957614
513,25553699.1381527
1291,1810478.222692121
2,1, 1,21, 0,21, 0.00,60.00,WinterDesignDay
10,33359461.366864286
22,5899533.255808762
34,5899533.255808762
46,5899533.255808762
513,25445027.342495717
1291,1795640.6734797354
2,1, 1,21, 0,22, 0.00,60.00,WinterDesignDay
10,32934392.611959465
22,5386254.039457358
34,5386254.039457358
46,5386254.039457358
513,25561896.957382
1291,1774576.3627674843
2,1, 1,21, 0,23, 0.00,60.00,WinterDesignDay
10,32371110.22225202
22,4262786.538241955
34,4262786.538241955
46,4262786.538241955
513,26169685.446903396
1291,1737415.8935043116
2,1, 1,21, 0,24, 0.00,60.00,WinterDesignDay
10,30299705.575174626
22,3276627.552965166
34,3276627.552965166
46,3276627.552965166
513,26829620.918447033
1291,0.0
1,DALLAS FORT WORTH INTL AP ANN CLG .4% CONDNS DB=>MWB,  32.90, -97.02,  -6.00, 171.00
2,1, 8,21, 0, 1, 0.00,60.00,SummerDesignDay
10,5817152.470283794
22,2519341.8750856025
34,2519341.8750856025
46,2519341.8750856025
513,3107566.6941281534
1291,0.0
2,1, 8,21, 0, 2, 0.00,60.00,SummerDesignDay
10,5218757.804381809
22,2300485.626558334
34,2300485.626558334
46,2300485.626558334
513,2728028.2767534377
1291,0.0
2,1, 8,21, 0, 3, 0.00,60.00,SummerDesignDay
10,4880700.679939045
22,2226600.0926204654
34,2226600.0926204654
46,2226600.0926204654
513,2463856.6862485413
1291,0.0
2,1, 8,21, 0, 4, 0.00,60.00,SummerDesignDay
10,4618394.565154765
22,2171740.4070940726
34,2171740.4070940726
46,2171740.4070940726
513,2256410.2569906544
1291,0.0
2,1, 8,21, 0, 5, 0.00,60.00,SummerDesignDay
10,4655779.653240971
22,2335718.210080423
34,2335718.210080423
46,2335718.210080423
513,2125533.271833996
1291,0.0
2,1, 8,21, 0, 6, 0.00,60.00,SummerDesignDay
10,6920247.332622566
22,2902111.397117286
34,2902111.397117286
46,2902111.397117286
513,2142277.091249049
1291,1674368.7337628424
2,1, 8,21, 0, 7, 0.00,60.00,SummerDesignDay
10,6219437.880974773
22,3490045.529346395
34,3490045.529346395
46,3490045.529346395
513,2714397.4057305767
1291,0.0
2,1, 8,21, 0, 8, 0.00,60.00,SummerDesignDay
10,9357839.428108338
22,3872409.4070758065
34,3872409.4070758065
46,3872409.4070758065
513,3726025.317727738
1291,1746016.3587531848
2,1, 8,21, 0, 9, 0.00,60.00,SummerDesignDay
10,9695800.868006455
22,3436548.288166884
34,3436548.288166884
46,3436548.288166884
513,4498750.080889021
1291,1754611.6273478419
2,1, 8,21, 0,10, 0.00,60.00,SummerDesignDay
10,9447699.561891
22,3287629.4627914913
34,3287629.4627914913
46,3287629.4627914913
513,5316613.845450377
1291,839439.7502836505
2,1, 8,21, 0,11, 0.00,60.00,SummerDesignDay
10,10385235.721112683
22,3359522.254572048
34,3359522.254572048
46,3359522.254572048
513,6118472.381357823
1291,903224.58181733
2,1, 8,21, 0,12, 0.00,60.00,SummerDesignDay
10,11821705.527679589
22,3405817.7973429887
34,3405817.7973429887
46,3405817.7973429887
513,6689984.946629157
1291,1721886.2803419589
2,1, 8,21, 0,13, 0.00,60.00,SummerDesignDay
10,10231751.458346609
22,3343416.5845005065
34,3343416.5845005065
46,3343416.5845005065
513,6884318.37048062
1291,0.0
2,1, 8,21, 0,14, 0.00,60.00,SummerDesignDay
10,11925015.948904615
22,3277253.218523652
34,3277253.218523652
46,3277253.218523652
513,6940684.2945551695
1291,1703061.9324603109
2,1, 8,21, 0,15, 0.00,60.00,SummerDesignDay
10,10248670.280334782
22,3272159.2094632606
34,3272159.2094632606
46,3272159.2094632606
513,6972494.567506039
1291,0.0
2,1, 8,21, 0,16, 0.00,60.00,SummerDesignDay
10,12211274.096524244
22,3549357.552769049
34,3549357.552769049
46,3549357.552769049
513,6962764.04429757
1291,1692190.5602907895
2,1, 8,21, 0,17, 0.00,60.00,SummerDesignDay
10,11413781.963035414
22,4479188.816479392
34,4479188.816479392
46,4479188.816479392
513,6919598.200658221
1291,0.0
2,1, 8,21, 0,18, 0.00,60.00,SummerDesignDay
10,14212908.449391657
22,5624286.233621349
34,5624286.233621349
46,5624286.233621349
513,6855551.071226219
1291,1712185.32704358
2,1, 8,21, 0,19, 0.00,60.00,SummerDesignDay
10,13594678.670183305
22,6045788.3062472865
34,6045788.3062472865
46,6045788.3062472865
513,6753332.914745231
1291,579340.1596906267
2,1, 8,21, 0,20, 0.00,60.00,SummerDesignDay
10,13977922.133151773
22,5971945.160957614
34,5971945.160957614
46,5971945.160957614
513,6636584.223941332
1291,1150132.6531727565
2,1, 8,21, 0,21, 0.00,60.00,SummerDesignDay
10,14028323.88774903
22,5899533.255808762
34,5899533.255808762
46,5899533.255808762
513,6186197.089481937
1291,1723333.4473782608
2,1, 8,21, 0,22, 0.00,60.00,SummerDesignDay
10,10742487.81340298
22,5386254.039457358
34,5386254.039457358
46,5386254.039457358
513,5144568.521593007
1291,0.0
2,1, 8,21, 0,23, 0.00,60.00,SummerDesignDay
10,10477219.19865609
22,4262786.538241955
34,4262786.538241955
46,4262786.538241955
513,4321085.839846869
1291,1692124.4769649068
2,1, 8,21, 0,24, 0.00,60.00,SummerDesignDay
10,7121458.722865741
22,3276627.552965166
34,3276627.552965166
46,3276627.552965166
513,3651374.06613815
1291,0.0
1,ANNUAL,  32.90, -97.02,  -6.00, 171.00
2,1, 2, 1, 0, 1, 0.00,60.00,Monday
10,12011415.937202502
22,2498479.0097388276
34,2498479.0097388276
46,2498479.0097388276
513,9322693.026393637
1291,0.0
2,1, 2, 1, 0, 2, 0.00,60.00,Monday
10,14294097.102103751
22,2287908.203727021
34,2287908.203727021
46,2287908.203727021
513,11815944.997306693
1291,0.0
2,1, 2, 1, 0, 3, 0.00,60.00,Monday
10,15180669.444203556
22,2218387.455766968
34,2218387.455766968
46,2218387.455766968
513,12772038.08736655
1291,0.0
2,1, 2, 1, 0, 4, 0.00,60.00,Monday
10,16014341.502978392
22,2167160.80380385
34,2167160.80380385
46,2167160.80380385
513,13656936.798104504
1291,0.0
2,1, 2, 1, 0, 5, 0.00,60.00,Monday
10,17225459.14131002
22,2326991.86639299
34,2326991.86639299
46,2326991.86639299
513,14703939.103590477
1291,0.0
2,1, 2, 1, 0, 6, 0.00,60.00,Monday
10,19871883.970195673
22,2888368.680950925
34,2888368.680950925
46,2888368.680950925
513,15076920.994203966
1291,1705104.1845473927
2,1, 2, 1, 0, 7, 0.00,60.00,Monday
10,20493787.157755796
22,3455726.295687276
34,3455726.295687276
46,3455726.295687276
513,15226277.988633983
1291,1796787.927536733
2,1, 2, 1, 0, 8, 0.00,60.00,Monday
10,12488724.600735543
22,3804342.957438114
34,3804342.957438114
46,3804342.957438114
513,6834316.218202396
1291,1836677.0805434277
2,1, 2, 1, 0, 9, 0.00,60.00,Monday
10,11808903.768853443
22,3331560.1762823085
34,3331560.1762823085
46,3331560.1762823085
513,5848479.944036655
1291,2622972.7769317715
2,1, 2, 1, 0,10, 0.00,60.00,Monday
10,10350806.405342469
22,3145052.4172653225
34,3145052.4172653225
46,3145052.4172653225
513,4310148.688967267
1291,2891588.7957443977
2,1, 2, 1, 0,11, 0.00,60.00,Monday
10,6796863.114949983
22,3201316.809840188
34,3201316.809840188
46,3201316.809840188
513,1786121.1279020184
1291,1805408.6738422934
2,1, 2, 1, 0,12, 0.00,60.00,Monday
10,5334213.877690647
22,3245056.7517732778
34,3245056.7517732778
46,3245056.7517732778
513,306019.6891586396
1291,1779120.9333932465
2,1, 2, 1, 0,13, 0.00,60.00,Monday
10,4759048.916244803
22,3197289.398662933
34,3197289.398662933
46,3197289.398662933
513,154285.71428571438
1291,1403457.2999306738
2,1, 2, 1, 0,14, 0.00,60.00,Monday
10,3654460.9738734695
22,3143544.016284607
34,3143544.016284607
46,3143544.016284607
513,154285.71428571438
1291,352614.7399376656
2,1, 2, 1, 0,15, 0.00,60.00,Monday
10,5045345.526720776
22,3152610.4832543777
34,3152610.4832543777
46,3152610.4832543777
513,154285.71428571438
1291,1734432.8258152017
2,1, 2, 1, 0,16, 0.00,60.00,Monday
10,5326762.77160798
22,3436226.8211706067
34,3436226.8211706067
46,3436226.8211706067
513,154285.71428571438
1291,1729288.2969848237
2,1, 2, 1, 0,17, 0.00,60.00,Monday
10,4538171.723939787
22,4368891.063756271
34,4368891.063756271
46,4368891.063756271
513,154285.71428571438
1291,0.0
2,1, 2, 1, 0,18, 0.00,60.00,Monday
10,7458612.659301592
22,5514884.4344747625
34,5514884.4344747625
46,5514884.4344747625
513,154285.71428571438
1291,1768556.6930406063
2,1, 2, 1, 0,19, 0.00,60.00,Monday
10,8102333.067541895
22,5936377.747743254
34,5936377.747743254
46,5936377.747743254
513,154285.71428571438
1291,1795452.3160127702
2,1, 2, 1, 0,20, 0.00,60.00,Monday
10,9058864.247854438
22,5860851.394397255
34,5860851.394397255
46,5860851.394397255
513,1176960.113225032
1291,1801792.6451520808
2,1, 2, 1, 0,21, 0.00,60.00,Monday
10,10178913.335539382
22,5788324.826793473
34,5788324.826793473
46,5788324.826793473
513,2384347.7966438443
1291,1786980.6170219942
2,1, 2, 1, 0,22, 0.00,60.00,Monday
10,10676281.401570113
22,5275040.848512863
34,5275040.848512863
46,5275040.848512863
513,3422857.5429877676
1291,1766717.7577168734
2,1, 2, 1, 0,23, 0.00,60.00,Monday
10,11485368.035450146
22,4175767.1653783405
34,4175767.1653783405
46,4175767.1653783405
513,5375515.21062196
1291,1732863.3158474874
2,1, 2, 1, 0,24, 0.00,60.00,Monday
10,10443659.436375767
22,3228431.3064444675
34,3228431.3064444675
46,3228431.3064444675
513,7021771.026168877
1291,0.0
2,2, 2, 2, 0, 1, 0.00,60.00,Tuesday
10,12401541.164131317
22,2498479.0097388276
34,2498479.0097388276
46,2498479.0097388276
513,8046447.038846356
1291,1666371.2144760955
2,2, 2, 2, 0, 2, 0.00,60.00,Tuesday
10,11461127.523924123
22,2287908.203727021
34,2287908.203727021
46,2287908.203727021
513,8982975.419127064
1291,0.0
2,2, 2, 2, 0, 3, 0.00,60.00,Tuesday
10,12694320.69374377
22,2218387.455766968
34,2218387.455766968
46,2218387.455766968
513,10285689.336906763
1291,0.0
2,2, 2, 2, 0, 4, 0.00,60.00,Tuesday
10,12786963.55964744
22,2167160.80380385
34,2167160.80380385
46,2167160.80380385
513,10429558.854773553
1291,0.0
2,2, 2, 2, 0, 5, 0.00,60.00,Tuesday
10,13045864.417751474
22,2326991.86639299
34,2326991.86639299
46,2326991.86639299
513,10524344.380031934
1291,0.0
2,2, 2, 2, 0, 6, 0.00,60.00,Tuesday
10,15744235.474490672
22,2888368.680950925
34,2888368.680950925
46,2888368.680950925
513,10949507.665485641
1291,1704869.017560718
2,2, 2, 2, 0, 7, 0.00,60.00,Tuesday
10,15933981.46096592
22,3455726.295687276
34,3455726.295687276
46,3455726.295687276
513,10666022.663647298
1291,1797237.555733549
2,2, 2, 2, 0, 8, 0.00,60.00,Tuesday
10,12598388.477585904
22,3804342.957438114
34,3804342.957438114
46,3804342.957438114
513,6943978.567214638
1291,1836678.6083815433
2,2, 2, 2, 0, 9, 0.00,60.00,Tuesday
10,8956066.426681299
22,3331560.1762823085
34,3331560.1762823085
46,3331560.1762823085
513,3772926.8651470076
1291,1845688.5136492741
2,2, 2, 2, 0,10, 0.00,60.00,Tuesday
10,8910084.513496071
22,3145052.4172653225
34,3145052.4172653225
46,3145052.4172653225
513,2098182.6347526317
1291,3662832.958112634
2,2, 2, 2, 0,11, 0.00,60.00,Tuesday
10,5293395.653177147
22,3201316.809840188
34,3201316.809840188
46,3201316.809840188
513,282789.0831690321
1291,1805273.2568024446
2,2, 2, 2, 0,12, 0.00,60.00,Tuesday
10,5182307.564447499
22,3245056.7517732778
34,3245056.7517732778
46,3245056.7517732778
513,154285.71428571438
1291,1778948.5950230244
2,2, 2, 2, 0,13, 0.00,60.00,Tuesday
10,3355591.616314129
22,3197289.398662933
34,3197289.398662933
46,3197289.398662933
513,154285.71428571438
1291,0.0
2,2, 2, 2, 0,14, 0.00,60.00,Tuesday
10,5047555.870462636
22,3143544.016284607
34,3143544.016284607
46,3143544.016284607
513,154285.71428571438
1291,1745709.6365268333
2,2, 2, 2, 0,15, 0.00,60.00,Tuesday
10,5108787.495601077
22,3152610.4832543777
34,3152610.4832543777
46,3152610.4832543777
513,217978.15475862374
1291,1734182.3542225936
2,2, 2, 2, 0,16, 0.00,60.00,Tuesday
10,5376314.110890258
22,3436226.8211706067
34,3436226.8211706067
46,3436226.8211706067
513,203937.6257956182
1291,1729187.7247571966
2,2, 2, 2, 0,17, 0.00,60.00,Tuesday
10,4540796.061165867
22,4368891.063756271
34,4368891.063756271
46,4368891.063756271
513,156910.05151179485
1291,0.0
2,2, 2, 2, 0,18, 0.00,60.00,Tuesday
10,7458044.865750922
22,5514884.4344747625
34,5514884.4344747625
46,5514884.4344747625
513,154285.71428571438
1291,1767988.899489936
2,2, 2, 2, 0,19, 0.00,60.00,Tuesday
10,8101856.534876019
22,5936377.747743254
34,5936377.747743254
46,5936377.747743254
513,154285.71428571438
1291,1794975.7833468937
2,2, 2, 2, 0,20, 0.00,60.00,Tuesday
10,8035829.238329809
22,5860851.394397255
34,5860851.394397255
46,5860851.394397255
513,154285.71428571438
1291,1801432.0345667703
2,2, 2, 2, 0,21, 0.00,60.00,Tuesday
10,8649406.66225046
22,5788324.826793473
34,5788324.826793473
46,5788324.826793473
513,854643.4510926958
1291,1787178.289284221
2,2, 2, 2, 0,22, 0.00,60.00,Tuesday
10,9896910.36917829
22,5275040.848512863
34,5275040.848512863
46,5275040.848512863
513,2643466.2947605923
1291,1766737.9735522221
2,2, 2, 2, 0,23, 0.00,60.00,Tuesday
10,10222793.682246875
22,4175767.1653783405
34,4175767.1653783405
46,4175767.1653783405
513,4112951.382678795
1291,1732852.7905873829
2,2, 2, 2, 0,24, 0.00,60.00,Tuesday
10,9242866.70870135
22,3228431.3064444675
34,3228431.3064444675
46,3228431.3064444675
513,5820978.298494458
1291,0.0
2,3, 2, 3, 0, 1, 0.00,60.00,Wednesday
10,11913242.097917357
22,2498479.0097388276
34,2498479.0097388276
46,2498479.0097388276
513,7557821.825187846
1291,1666697.3619206464
2,3, 2, 3, 0, 2, 0.00,60.00,Wednesday
10,11204569.303555865
22,2287908.203727021
34,2287908.203727021
46,2287908.203727021
513,8726417.198758807
1291,0.0
2,3, 2, 3, 0, 3, 0.00,60.00,Wednesday
10,12035606.830803247
22,2218387.455766968
34,2218387.455766968
46,2218387.455766968
513,9626975.47396624
1291,0.0
2,3, 2, 3, 0, 4, 0.00,60.00,Wednesday
10,12854884.196952429
22,2167160.80380385
34,2167160.80380385
46,2167160.80380385
513,10497479.49207854
1291,0.0
2,3, 2, 3, 0, 5, 0.00,60.00,Wednesday
10,13530588.935560156
22,2326991.86639299
34,2326991.86639299
46,2326991.86639299
513,11009068.897840612
1291,0.0
2,3, 2, 3, 0, 6, 0.00,60.00,Wednesday
10,16270591.840663897
22,2888368.680950925
34,2888368.680950925
46,2888368.680950925
513,11475528.158649404
1291,1705204.8905701798
2,3, 2, 3, 0, 7, 0.00,60.00,Wednesday
10,16781236.46025793
22,3455726.295687276
34,3455726.295687276
46,3455726.295687276
513,11513187.313202232
1291,1797327.9054706218
2,3, 2, 3, 0, 8, 0.00,60.00,Wednesday
10,14880320.08455617
22,3804342.957438114
34,3804342.957438114
46,3804342.957438114
513,9225739.743841212
1291,1836849.038725235
2,3, 2, 3, 0, 9, 0.00,60.00,Wednesday
10,9851350.413302653
22,3331560.1762823085
34,3331560.1762823085
46,3331560.1762823085
513,4668141.285579393
1291,1845758.0798382452
2,3, 2, 3, 0,10, 0.00,60.00,Wednesday
10,7863261.988532741
22,3145052.4172653225
34,3145052.4172653225
46,3145052.4172653225
513,2521984.6432497427
1291,2192208.424652193
2,3, 2, 3, 0,11, 0.00,60.00,Wednesday
10,6635406.990862378
22,3201316.809840188
34,3201316.809840188
46,3201316.809840188
513,290721.78340267355
1291,3139351.8942540344
2,3, 2, 3, 0,12, 0.00,60.00,Wednesday
10,3889039.4684039825
22,3245056.7517732778
34,3245056.7517732778
46,3245056.7517732778
513,154285.71428571438
1291,485680.49897950835
2,3, 2, 3, 0,13, 0.00,60.00,Wednesday
10,4746320.631143582
22,3197289.398662933
34,3197289.398662933
46,3197289.398662933
513,154285.71428571438
1291,1390729.014829453
2,3, 2, 3, 0,14, 0.00,60.00,Wednesday
10,5218659.40981405
22,3143544.016284607
34,3143544.016284607
46,3143544.016284607
513,325608.4248273927
1291,1745490.4653365684
2,3, 2, 3, 0,15, 0.00,60.00,Wednesday
10,5659498.336108948
22,3152610.4832543777
34,3152610.4832543777
46,3152610.4832543777
513,768499.5741292877
1291,1734371.7753598006
2,3, 2, 3, 0,16, 0.00,60.00,Wednesday
10,4233528.952452829
22,3436226.8211706067
34,3436226.8211706067
46,3436226.8211706067
513,790340.1921153867
1291,0.0
2,3, 2, 3, 0,17, 0.00,60.00,Wednesday
10,6685063.216591314
22,4368891.063756271
34,4368891.063756271
46,4368891.063756271
513,557270.0048701696
1291,1743907.2020670716
2,3, 2, 3, 0,18, 0.00,60.00,Wednesday
10,7710451.126985577
22,5514884.4344747625
34,5514884.4344747625
46,5514884.4344747625
513,406581.366694586
1291,1768099.508315719
2,3, 2, 3, 0,19, 0.00,60.00,Wednesday
10,8337541.124509769
22,5936377.747743254
34,5936377.747743254
46,5936377.747743254
513,390073.14624964795
1291,1794872.9410167076
2,3, 2, 3, 0,20, 0.00,60.00,Wednesday
10,8117662.6344346395
22,5860851.394397255
34,5860851.394397255
46,5860851.394397255
513,236376.18561078928
1291,1801174.9593465256
2,3, 2, 3, 0,21, 0.00,60.00,Wednesday
10,7948422.928024027
22,5788324.826793473
34,5788324.826793473
46,5788324.826793473
513,154285.71428571438
1291,1786552.291864769
2,3, 2, 3, 0,22, 0.00,60.00,Wednesday
10,7407396.324218541
22,5275040.848512863
34,5275040.848512863
46,5275040.848512863
513,154285.71428571438
1291,1766404.509067353
2,3, 2, 3, 0,23, 0.00,60.00,Wednesday
10,6263898.363219355
22,4175767.1653783405
34,4175767.1653783405
46,4175767.1653783405
513,154285.71428571438
1291,1732623.139952943
2,3, 2, 3, 0,24, 0.00,60.00,Wednesday
10,4236807.781950718
22,3228431.3064444675
34,3228431.3064444675
46,3228431.3064444675
513,814919.3717438264
1291,0.0
2,4, 2, 4, 0, 1, 0.00,60.00,Thursday
10,4916519.027512082
22,2498479.0097388276
34,2498479.0097388276
46,2498479.0097388276
513,2227796.1167032165
1291,0.0
2,4, 2, 4, 0, 2, 0.00,60.00,Thursday
10,7127560.816362053
22,2287908.203727021
34,2287908.203727021
46,2287908.203727021
513,2996153.9031885946
1291,1653254.8083764
2,4, 2, 4, 0, 3, 0.00,60.00,Thursday
10,5709743.866599852
22,2218387.455766968
34,2218387.455766968
46,2218387.455766968
513,3301112.5097628455
1291,0.0
2,4, 2, 4, 0, 4, 0.00,60.00,Thursday
10,6051189.717368508
22,2167160.80380385
34,2167160.80380385
46,2167160.80380385
513,3693785.01249462
1291,0.0
2,4, 2, 4, 0, 5, 0.00,60.00,Thursday
10,6538083.2902591005
22,2326991.86639299
34,2326991.86639299
46,2326991.86639299
513,4016563.2525395574
1291,0.0
2,4, 2, 4, 0, 6, 0.00,60.00,Thursday
10,8330694.418895593
22,2888368.680950925
34,2888368.680950925
46,2888368.680950925
513,3535679.440100424
1291,1705156.1873508552
2,4, 2, 4, 0, 7, 0.00,60.00,Thursday
10,8315052.664720925
22,3455726.295687276
34,3455726.295687276
46,3455726.295687276
513,3047455.380111859
1291,1796876.043023989
2,4, 2, 4, 0, 8, 0.00,60.00,Thursday
10,6906269.303048844
22,3804342.957438114
34,3804342.957438114
46,3804342.957438114
513,1251729.4177049822
1291,1836808.58335414
2,4, 2, 4, 0, 9, 0.00,60.00,Thursday
10,5337222.263285027
22,3331560.1762823085
34,3331560.1762823085
46,3331560.1762823085
513,154285.71428571438
1291,1845485.5011142967
2,4, 2, 4, 0,10, 0.00,60.00,Thursday
10,5134584.721887606
22,3145052.4172653225
34,3145052.4172653225
46,3145052.4172653225
513,154285.71428571438
1291,1831230.086971087
2,4, 2, 4, 0,11, 0.00,60.00,Thursday
10,5164264.034255898
22,3201316.809840188
34,3201316.809840188
46,3201316.809840188
513,154285.71428571438
1291,1804645.006764513
2,4, 2, 4, 0,12, 0.00,60.00,Thursday
10,5181876.925668122
22,3245056.7517732778
34,3245056.7517732778
46,3245056.7517732778
513,154285.71428571438
1291,1778517.956243647
2,4, 2, 4, 0,13, 0.00,60.00,Thursday
10,5113714.282200031
22,3197289.398662933
34,3197289.398662933
46,3197289.398662933
513,154285.71428571438
1291,1758122.665885902
2,4, 2, 4, 0,14, 0.00,60.00,Thursday
10,5078730.829152188
22,3143544.016284607
34,3143544.016284607
46,3143544.016284607
513,185749.36860165742
1291,1745420.9409004422
2,4, 2, 4, 0,15, 0.00,60.00,Thursday
10,5237001.316200312
22,3152610.4832543777
34,3152610.4832543777
46,3152610.4832543777
513,346010.5165949212
1291,1734363.812985531
2,4, 2, 4, 0,16, 0.00,60.00,Thursday
10,3670887.943951322
22,3436226.8211706067
34,3436226.8211706067
46,3436226.8211706067
513,227699.18361387923
1291,0.0
2,4, 2, 4, 0,17, 0.00,60.00,Thursday
10,6282149.084985791
22,4368891.063756271
34,4368891.063756271
46,4368891.063756271
513,154285.71428571438
1291,1743977.3610460057
2,4, 2, 4, 0,18, 0.00,60.00,Thursday
10,7458301.344045199
22,5514884.4344747625
34,5514884.4344747625
46,5514884.4344747625
513,154285.71428571438
1291,1768245.3777842137
2,4, 2, 4, 0,19, 0.00,60.00,Thursday
10,8102226.329122109
22,5936377.747743254
34,5936377.747743254
46,5936377.747743254
513,154285.71428571438
1291,1795345.577592983
2,4, 2, 4, 0,20, 0.00,60.00,Thursday
10,8950379.401273994
22,5860851.394397255
34,5860851.394397255
46,5860851.394397255
513,1068715.2725467845
1291,1801552.639249886
2,4, 2, 4, 0,21, 0.00,60.00,Thursday
10,10683998.476973014
22,5788324.826793473
34,5788324.826793473
46,5788324.826793473
513,2889549.8226394625
1291,1786863.7324600099
2,4, 2, 4, 0,22, 0.00,60.00,Thursday
10,11593811.517428176
22,5275040.848512863
34,5275040.848512863
46,5275040.848512863
513,4340125.766572379
1291,1766979.649990324
2,4, 2, 4, 0,23, 0.00,60.00,Thursday
10,12131617.587676326
22,4175767.1653783405
34,4175767.1653783405
46,4175767.1653783405
513,6021780.006769419
1291,1732848.0719262082
2,4, 2, 4, 0,24, 0.00,60.00,Thursday
10,11349709.566762045
22,3228431.3064444675
34,3228431.3064444675
46,3228431.3064444675
513,7927821.156555152
1291,0.0
2,5, 2, 5, 0, 1, 0.00,60.00,Friday
10,12460657.35639762
22,2498479.0097388276
34,2498479.0097388276
46,2498479.0097388276
513,9771934.445588754
1291,0.0
2,5, 2, 5, 0, 2, 0.00,60.00,Friday
10,13032890.189696588
22,2287908.203727021
34,2287908.203727021
46,2287908.203727021
513,10554738.084899528
1291,0.0
2,5, 2, 5, 0, 3, 0.00,60.00,Friday
10,14886904.10364993
22,2218387.455766968
34,2218387.455766968
46,2218387.455766968
513,10830345.142140754
1291,1647927.6046721695
2,5, 2, 5, 0, 4, 0.00,60.00,Friday
10,13673553.383770576
22,2167160.80380385
34,2167160.80380385
46,2167160.80380385
513,11316148.678896692
1291,0.0
2,5, 2, 5, 0, 5, 0.00,60.00,Friday
10,14165484.933615297
22,2326991.86639299
34,2326991.86639299
46,2326991.86639299
513,11643964.895895755
1291,0.0
2,5, 2, 5, 0, 6, 0.00,60.00,Friday
10,16569136.98332356
22,2888368.680950925
34,2888368.680950925
46,2888368.680950925
513,11774140.264630437
1291,1705137.927248807
2,5, 2, 5, 0, 7, 0.00,60.00,Friday
10,16834796.606362425
22,3455726.295687276
34,3455726.295687276
46,3455726.295687276
513,11567124.449937357
1291,1796950.9148399886
2,5, 2, 5, 0, 8, 0.00,60.00,Friday
10,14498343.40784114
22,3804342.957438114
34,3804342.957438114
46,3804342.957438114
513,8843847.673506036
1291,1836764.4323453826
2,5, 2, 5, 0, 9, 0.00,60.00,Friday
10,10886729.29295354
22,3331560.1762823085
34,3331560.1762823085
46,3331560.1762823085
513,5703409.024258262
1291,1845869.2208102648
2,5, 2, 5, 0,10, 0.00,60.00,Friday
10,8833775.855545416
22,3145052.4172653225
34,3145052.4172653225
46,3145052.4172653225
513,3853475.0743714254
1291,1831231.8605431856
2,5, 2, 5, 0,11, 0.00,60.00,Friday
10,6743177.922543047
22,3201316.809840188
34,3201316.809840188
46,3201316.809840188
513,1732753.5565571676
1291,1805091.0527802093
2,5, 2, 5, 0,12, 0.00,60.00,Friday
10,5523549.563944926
22,3245056.7517732778
34,3245056.7517732778
46,3245056.7517732778
513,495736.24766417296
1291,1778740.0611419922
2,5, 2, 5, 0,13, 0.00,60.00,Friday
10,5114397.261938661
22,3197289.398662933
34,3197289.398662933
46,3197289.398662933
513,154285.71428571438
1291,1758805.6456245328
2,5, 2, 5, 0,14, 0.00,60.00,Friday
10,5047229.654644479
22,3143544.016284607
34,3143544.016284607
46,3143544.016284607
513,154285.71428571438
1291,1745383.4207086763
2,5, 2, 5, 0,15, 0.00,60.00,Friday
10,5045494.149650584
22,3152610.4832543777
34,3152610.4832543777
46,3152610.4832543777
513,154285.71428571438
1291,1734581.4487450093
2,5, 2, 5, 0,16, 0.00,60.00,Friday
10,3597474.474623157
22,3436226.8211706067
34,3436226.8211706067
46,3436226.8211706067
513,154285.71428571438
1291,0.0
2,5, 2, 5, 0,17, 0.00,60.00,Friday
10,6281942.687928073
22,4368891.063756271
34,4368891.063756271
46,4368891.063756271
513,154285.71428571438
1291,1743770.9639882867
2,5, 2, 5, 0,18, 0.00,60.00,Friday
10,7458269.611770671
22,5514884.4344747625
34,5514884.4344747625
46,5514884.4344747625
513,154285.71428571438
1291,1768213.6455096859
2,5, 2, 5, 0,19, 0.00,60.00,Friday
10,8102086.582941288
22,5936377.747743254
34,5936377.747743254
46,5936377.747743254
513,154285.71428571438
1291,1795205.831412163
2,5, 2, 5, 0,20, 0.00,60.00,Friday
10,8874776.775376573
22,5860851.394397255
34,5860851.394397255
46,5860851.394397255
513,993173.1075940963
1291,1801492.1783051535
2,5, 2, 5, 0,21, 0.00,60.00,Friday
10,10690213.380813554
22,5788324.826793473
34,5788324.826793473
46,5788324.826793473
513,2895545.680334352
1291,1787082.7786056604
2,5, 2, 5, 0,22, 0.00,60.00,Friday
10,11801422.488424825
22,5275040.848512863
34,5275040.848512863
46,5275040.848512863
513,4548060.034187617
1291,1766656.3533717329
2,5, 2, 5, 0,23, 0.00,60.00,Friday
10,11831707.134741385
22,4175767.1653783405
34,4175767.1653783405
46,4175767.1653783405
513,6635544.543455891
1291,819173.0823047964
2,5, 2, 5, 0,24, 0.00,60.00,Friday